chemcompute.org
{'UTCtimestamp': '2022-10-07T20:45:48.065195', 'cluster': 'jetstream2', 'clusterJobNumber': '121617', 'status': 'RUNNING', 'nodeList': 'chemcompute-node-1'}
----- GAMESS execution script 'rungms' -----
This job is running on host chemcompute-node-1.novalocal
under operating system Linux at Fri Oct 7 20:45:52 UTC 2022
SLURM has assigned the following compute nodes to this run:
Available scratch disk space (Kbyte units) at beginning of the job is
Filesystem     1K-blocks     Used Available Use% Mounted on
/dev/sda1       62903276 11459128  51444148  19% /
GAMESS temporary binary files will be written to /scratch/121617
GAMESS supplementary output files will be written to /data/slurm/46/461724
Copying input file 461724.inp to your run's scratch directory...
The generated host list is
chemcompute-node-1.novalocal

 Distributed Data Interface kickoff program.
 Initiating 1 compute processes on 1 nodes to run the following command:
 /data/gamess-2019R1-avx2-ddi/gamess.00.x 461724 

          ******************************************************
          *         GAMESS VERSION = 30 JUN 2019 (R1)          *
          *             FROM IOWA STATE UNIVERSITY             *
          * M.W.SCHMIDT, K.K.BALDRIDGE, J.A.BOATZ, S.T.ELBERT, *
          *   M.S.GORDON, J.H.JENSEN, S.KOSEKI, N.MATSUNAGA,   *
          *          K.A.NGUYEN, S.J.SU, T.L.WINDUS,           *
          *       TOGETHER WITH M.DUPUIS, J.A.MONTGOMERY       *
          *         J.COMPUT.CHEM.  14, 1347-1363(1993)        *
          **************** 64 BIT INTEL VERSION ****************

  SINCE 1993, STUDENTS AND POSTDOCS WORKING AT IOWA STATE UNIVERSITY
  AND ALSO IN THEIR VARIOUS JOBS AFTER LEAVING ISU HAVE MADE IMPORTANT
  CONTRIBUTIONS TO THE CODE:
     IVANA ADAMOVIC, CHRISTINE AIKENS, YURI ALEXEEV, POOJA ARORA,
     ANDREY ASADCHEV, ROB BELL, PRADIPTA BANDYOPADHYAY, JONATHAN BENTZ,
     COLLEEN BERTONI, BRETT BODE, KURT BRORSEN, CALEB CARLIN, GALINA CHABAN,
     WEI CHEN, CHEOL HO CHOI, PAUL DAY, ALBERT DEFUSCO, NUWAN DESILVA,
     TIM DUDLEY, DMITRI FEDOROV, ALEX FINDLATER, GRAHAM FLETCHER, 
     MARK FREITAG, KURT GLAESEMANN, ANASTASIA GUNINA,
     DAN KEMP, GRANT MERRILL, NORIYUKI MINEZAWA, JONATHAN MULLIN,
     TAKESHI NAGATA, SEAN NEDD, HEATHER NETZLOFF, BOSILJKA NJEGIC, RYAN OLSON,
     MIKE PAK, BUU PHAM,
     SPENCER PRUITT, LUKE ROSKOP, JIM SHOEMAKER, LYUDMILA SLIPCHENKO,
     TONY SMITH, SAROM SOK LEANG, JIE SONG, TETSUYA TAKETSUGU, SIMON WEBB,
     PENG XU, SOOHAENG YOO, FEDERICO ZAHARIEV

  ADDITIONAL CODE HAS BEEN PROVIDED BY COLLABORATORS IN OTHER GROUPS:
     IOWA STATE UNIVERSITY:
          JOE IVANIC, AARON WEST, LAIMUTIS BYTAUTAS, KLAUS RUEDENBERG
     UNIVERSITY OF TOKYO: KIMIHIKO HIRAO, TAKAHITO NAKAJIMA,
          TAKAO TSUNEDA, MUNEAKI KAMIYA, SUSUMU YANAGISAWA,
          KIYOSHI YAGI, MAHITO CHIBA, SEIKEN TOKURA, NAOAKI KAWAKAMI
     UNIVERSITY OF AARHUS: FRANK JENSEN
     UNIVERSITY OF IOWA: VISVALDAS KAIRYS, HUI LI
     NATIONAL INST. OF STANDARDS AND TECHNOLOGY: WALT STEVENS, DAVID GARMER
     UNIVERSITY OF PISA: BENEDETTA MENNUCCI, JACOPO TOMASI
     UNIVERSITY OF MEMPHIS: HENRY KURTZ, PRAKASHAN KORAMBATH
     UNIVERSITY OF ALBERTA: TOBY ZENG, MARIUSZ KLOBUKOWSKI
     UNIVERSITY OF NEW ENGLAND: MARK SPACKMAN
     MIE UNIVERSITY: HIROAKI UMEDA
     NAT. INST. OF ADVANCED INDUSTRIAL SCIENCE AND TECHNOLOGY: KAZUO KITAURA
     MICHIGAN STATE UNIVERSITY:
          KAROL KOWALSKI, MARTA WLOCH, JEFFREY GOUR, JESSE LUTZ,
          WEI LI, JUN SHEN, J. EMILIANO DEUSTUA, PIOTR PIECUCH
     UNIVERSITY OF MINNESOTA:
          YINAN SHU
     UNIVERSITY OF SILESIA: MONIKA MUSIAL, STANISLAW KUCHARSKI
     FACULTES UNIVERSITAIRES NOTRE-DAME DE LA PAIX:
          OLIVIER QUINET, BENOIT CHAMPAGNE
     UNIVERSITY OF CALIFORNIA - SANTA BARBARA: BERNARD KIRTMAN
     INSTITUTE FOR MOLECULAR SCIENCE:
          KAZUYA ISHIMURA, MICHIO KATOUDA, AND SHIGERU NAGASE
     UNIVERSITY OF NOTRE DAME: ANNA POMOGAEVA, DAN CHIPMAN
     KYUSHU UNIVERSITY:
          HARUYUKI NAKANO,
          FENG LONG GU, JACEK KORCHOWIEC, MARCIN MAKOWSKI, AND YURIKO AOKI,
          HIROTOSHI MORI AND EISAKU MIYOSHI
     PENNSYLVANIA STATE UNIVERSITY:
          TZVETELIN IORDANOV, CHET SWALINA, JONATHAN SKONE,
          SHARON HAMMES-SCHIFFER
     WASEDA UNIVERSITY:
          MASATO KOBAYASHI, TOMOKO AKAMA, TSUGUKI TOUMA,
          TAKESHI YOSHIKAWA, YASUHIRO IKABATA, JUNJI SEINO,
          YUYA NAKAJIMA, HIROMI NAKAI
     NANJING UNIVERSITY: SHUHUA LI
     UNIVERSITY OF NEBRASKA:
          PEIFENG SU, DEJUN SI, NANDUN THELLAMUREGE, YALI WANG, HUI LI
     UNIVERSITY OF ZURICH: ROBERTO PEVERATI, KIM BALDRIDGE
     N. COPERNICUS UNIVERSITY AND JACKSON STATE UNIVERSITY:
          MARIA BARYSZ
     UNIVERSITY OF COPENHAGEN: Jimmy Kromann, CASPER STEINMANN
     TOKYO INSTITUTE OF TECHNOLOGY: HIROYA NAKATA
     NAGOYA UNIVERSITY: YOSHIO NISHIMOTO, STEPHAN IRLE
     MOSCOW STATE UNIVERSITY: VLADIMIR MIRONOV
     A.N.NESMEYANOV INSTITUTE OF ORGANOELEMENT COMPOUNDS OF RUSSIAN ACADEMY OF SCIENCES:
          IGOR S. GERASIMOV

 EXECUTION OF GAMESS BEGUN Fri Oct  7 20:45:52 2022

            ECHO OF THE FIRST FEW INPUT CARDS -
 INPUT CARD>!                                                                               
 INPUT CARD>!   GAMESS Calculation input file                                               
 INPUT CARD>!                                                                               
 INPUT CARD>!                                                                               
 INPUT CARD> $CONTRL SCFTYP=RHF MAXIT=200 RUNTYP=OPTIMIZE                                   
 INPUT CARD>         COORD=UNIQUE MULT=1                                                    
 INPUT CARD>         ICHARG=0                                                               
 INPUT CARD>         DFTTYP=B3LYP                                                           
 INPUT CARD>         MOLPLT=.FALSE. PLTORB=.FALSE.  $END                                    
 INPUT CARD> $SYSTEM TIMLIM=2879 MWORDS=250  $END                                           
 INPUT CARD>                                                                                
 INPUT CARD> $FORCE METHOD=SEMINUM NVIB=2 $END                                              
 INPUT CARD> $STATPT OPTTOL=0.0005 NSTEP=999 $END                                           
 INPUT CARD> $STATPT IHREP=0 HSSEND=.TRUE.  $END                                            
 INPUT CARD>                                                                                
 INPUT CARD> $DFT    METHOD=GRID  NLEB=590  $END                                            
 INPUT CARD>                                                                                
 INPUT CARD> $BASIS  GBASIS=N21 NGAUSS=3 $END                                               
 INPUT CARD>                                                                                
 INPUT CARD> $SCF    DIRSCF=.T. $END                                                        
 INPUT CARD> $GUESS  GUESS=HUCKEL  $END                                                     
 INPUT CARD>                                                                                
 INPUT CARD> $DATA                                                                          
 INPUT CARD>                                                                                
 INPUT CARD>  C1                                                                            
 INPUT CARD>O     8.0    -1.08486     1.31190     0.17837                                   
 INPUT CARD>C     6.0    -0.04180     0.71319    -0.05335                                   
 INPUT CARD>C     6.0     0.01655    -0.76562    -0.06160                                   
 INPUT CARD>C     6.0     1.19128    -1.40819    -0.08375                                   
 INPUT CARD>H     1.0     0.90358     1.23886    -0.25910                                   
 INPUT CARD>H     1.0    -0.93654    -1.28680    -0.03633                                   
 INPUT CARD>H     1.0     2.14591    -0.88707    -0.08842                                   
 INPUT CARD>H     1.0     1.22077    -2.49430    -0.08108                                   
 INPUT CARD> $END                                                                           
 INPUT CARD>                                                                                
 INPUT CARD>                                                                                
 INPUT CARD>! Customizations after this line are persisted when using Do More Calculations  
  250000000 WORDS OF MEMORY AVAILABLE

     BASIS OPTIONS
     -------------
     GBASIS=N21          IGAUSS=       3      POLAR=NONE    
     NDFUNC=       0     NFFUNC=       0     DIFFSP=       F
     NPFUNC=       0      DIFFS=       F     BASNAM=        


     RUN TITLE
     ---------
                                                                                 

 THE POINT GROUP OF THE MOLECULE IS C1      
 THE ORDER OF THE PRINCIPAL AXIS IS     0

 ATOM      ATOMIC                      COORDINATES (BOHR)
           CHARGE         X                   Y                   Z
 O           8.0    -2.0500881350        2.4791315233        0.3370704244
 C           6.0    -0.0789905463        1.3477336772       -0.1008168814
 C           6.0     0.0312749651       -1.4468120107       -0.1164071208
 C           6.0     2.2511927747       -2.6610932387       -0.1582645515
 H           1.0     1.7075186080        2.3411059371       -0.4896280034
 H           1.0    -1.7698039765       -2.4316994010       -0.0686537451
 H           1.0     4.0551818943       -1.6763192319       -0.1670895718
 H           1.0     2.3069207940       -4.7135435312       -0.1532189831

          INTERNUCLEAR DISTANCES (ANGS.)
          ------------------------------

                1 O          2 C          3 C          4 C          5 H     

   1 O       0.0000000    1.2247947 *  2.3636368 *  3.5564603    2.0373042 *
   2 C       1.2247947 *  0.0000000    1.4799837 *  2.4539078 *  1.1010928 *
   3 C       2.3636368 *  1.4799837 *  0.0000000    1.3391704 *  2.2008563 *
   4 C       3.5564603    2.4539078 *  1.3391704 *  0.0000000    2.6684064 *
   5 H       2.0373042 *  1.1010928 *  2.2008563 *  2.6684064 *  0.0000000  
   6 H       2.6117689 *  2.1910749 *  1.0865761 *  2.1318072 *  3.1328304  
   7 H       3.9172083    2.7107447 *  2.1329893 *  1.0876150 *  2.4682167 *
   8 H       4.4576230    3.4471501    2.1068602 *  1.0865136 *  3.7508378  

                6 H          7 H          8 H     

   1 O       2.6117689 *  3.9172083    4.4576230  
   2 C       2.1910749 *  2.7107447 *  3.4471501  
   3 C       1.0865761 *  2.1329893 *  2.1068602 *
   4 C       2.1318072 *  1.0876150 *  1.0865136 *
   5 H       3.1328304    2.4682167 *  3.7508378  
   6 H       0.0000000    3.1086967    2.4726595 *
   7 H       3.1086967    0.0000000    1.8544881 *
   8 H       2.4726595 *  1.8544881 *  0.0000000  

  * ... LESS THAN  3.000


     ATOMIC BASIS SET
     ----------------
 THE CONTRACTED PRIMITIVE FUNCTIONS HAVE BEEN UNNORMALIZED
 THE CONTRACTED BASIS FUNCTIONS ARE NOW NORMALIZED TO UNITY

  SHELL TYPE  PRIMITIVE        EXPONENT          CONTRACTION COEFFICIENT(S)

 O         

      1   S       1           322.0370000    0.059239393389
      1   S       2            48.4308000    0.351499960776
      1   S       3            10.4206000    0.707657921031

      2   L       4             7.4029400   -0.404453583190    0.244586106967
      2   L       5             1.5762000    1.221561761397    0.853955373466

      3   L       6             0.3736840    1.000000000000    1.000000000000

 C         

      4   S       7           172.2560000    0.061766907377
      4   S       8            25.9109000    0.358794042852
      4   S       9             5.5333500    0.700713083689

      5   L      10             3.6649800   -0.395895162119    0.236459946619
      5   L      11             0.7705450    1.215834355681    0.860618805716

      6   L      12             0.1958570    1.000000000000    1.000000000000

 C         

      7   S      13           172.2560000    0.061766907377
      7   S      14            25.9109000    0.358794042852
      7   S      15             5.5333500    0.700713083689

      8   L      16             3.6649800   -0.395895162119    0.236459946619
      8   L      17             0.7705450    1.215834355681    0.860618805716

      9   L      18             0.1958570    1.000000000000    1.000000000000

 C         

     10   S      19           172.2560000    0.061766907377
     10   S      20            25.9109000    0.358794042852
     10   S      21             5.5333500    0.700713083689

     11   L      22             3.6649800   -0.395895162119    0.236459946619
     11   L      23             0.7705450    1.215834355681    0.860618805716

     12   L      24             0.1958570    1.000000000000    1.000000000000

 H         

     13   S      25             5.4471780    0.156284978695
     13   S      26             0.8245472    0.904690876670

     14   S      27             0.1831916    1.000000000000

 H         

     15   S      28             5.4471780    0.156284978695
     15   S      29             0.8245472    0.904690876670

     16   S      30             0.1831916    1.000000000000

 H         

     17   S      31             5.4471780    0.156284978695
     17   S      32             0.8245472    0.904690876670

     18   S      33             0.1831916    1.000000000000

 H         

     19   S      34             5.4471780    0.156284978695
     19   S      35             0.8245472    0.904690876670

     20   S      36             0.1831916    1.000000000000

 TOTAL NUMBER OF BASIS SET SHELLS             =   20
 NUMBER OF CARTESIAN GAUSSIAN BASIS FUNCTIONS =   44
 NUMBER OF ELECTRONS                          =   30
 CHARGE OF MOLECULE                           =    0
 SPIN MULTIPLICITY                            =    1
 NUMBER OF OCCUPIED ORBITALS (ALPHA)          =   15
 NUMBER OF OCCUPIED ORBITALS (BETA )          =   15
 TOTAL NUMBER OF ATOMS                        =    8
 THE NUCLEAR REPULSION ENERGY IS      102.7171806229

 SELECTED MURRAY-HANDY-LAMING RADIAL GRID

 LEGACY BECKE'S FUZZY CELL METHOD

 SELECTED ORIGINAL BECKE'S PARTITION FUNCTION

     LEBEDEV GRID-BASED DFT OPTIONS
     ------------------------------
     DFTTYP=B3LYP   
     NRAD  =      96     NLEB  =     590
     NRAD0 =      24     NLEB0 =     110
     SWOFF =    5.00E-03 (PURE SCF -> DFT)
     SWITCH=    3.00E-04 (COARSE -> TIGHT GRID)
     THRESH=    0.00E+00 GTHRE=    1.00E+00

 GRIMME'S EMPIRICAL DISPERSION CORRECTION= F

     $CONTRL OPTIONS
     ---------------
 SCFTYP=RHF          RUNTYP=OPTIMIZE     EXETYP=RUN     
 MPLEVL=       0     CITYP =NONE         CCTYP =NONE         VBTYP =NONE    
 DFTTYP=B3LYP        TDDFT =NONE    
 MULT  =       1     ICHARG=       0     NZVAR =       0     COORD =UNIQUE  
 PP    =NONE         RELWFN=NONE         LOCAL =NONE         NUMGRD=       F
 ISPHER=      -1     NOSYM =       0     MAXIT =     200     UNITS =ANGS    
 PLTORB=       F     MOLPLT=       F     AIMPAC=       F     FRIEND=        
 NPRINT=       7     IREST =       0     GEOM  =INPUT   
 NORMF =       0     NORMP =       0     ITOL  =      20     ICUT  =       9
 INTTYP=BEST         GRDTYP=BEST         QMTTOL= 1.0E-06

     $SYSTEM OPTIONS
     ---------------
  REPLICATED MEMORY=   250000000 WORDS (ON EVERY NODE).
 DISTRIBUTED MEMDDI=           0 MILLION WORDS IN AGGREGATE,
 MEMDDI DISTRIBUTED OVER   1 PROCESSORS IS           0 WORDS/PROCESSOR.
 TOTAL MEMORY REQUESTED ON EACH PROCESSOR=   250000000 WORDS.
 TIMLIM=        2879.00 MINUTES, OR       2.0 DAYS.
 PARALL= F  BALTYP=  DLB     KDIAG=    0  COREFL= F
 MXSEQ2=     300 MXSEQ3=     150  mem10=         0

          ----------------
          PROPERTIES INPUT
          ----------------

     MOMENTS            FIELD           POTENTIAL          DENSITY
 IEMOM =       1   IEFLD =       0   IEPOT =       0   IEDEN =       0
 WHERE =COMASS     WHERE =NUCLEI     WHERE =NUCLEI     WHERE =NUCLEI  
 OUTPUT=BOTH       OUTPUT=BOTH       OUTPUT=BOTH       OUTPUT=BOTH    
 IEMINT=       0   IEFINT=       0                     IEDINT=       0
                                                       MORB  =       0
          EXTRAPOLATION IN EFFECT
          DIIS IN EFFECT
 ORBITAL PRINTING OPTION: NPREO=     1    44     2     1

     -------------------------------
     INTEGRAL TRANSFORMATION OPTIONS
     -------------------------------
     NWORD  =            0
     CUTOFF = 1.0E-09     MPTRAN =       0
     DIRTRF =       T     AOINTS =DUP     

          ----------------------
          INTEGRAL INPUT OPTIONS
          ----------------------
 NOPK  =       1 NORDER=       0 SCHWRZ=       T

     ------------------------------------------
     THE POINT GROUP IS C1 , NAXIS= 0, ORDER= 1
     ------------------------------------------

     DIMENSIONS OF THE SYMMETRY SUBSPACES ARE
 A   =   44

 ..... DONE SETTING UP THE RUN .....
 STEP CPU TIME =     0.01 TOTAL CPU TIME =          0.0 (      0.0 MIN)
 TOTAL WALL CLOCK TIME=          0.0 SECONDS, CPU UTILIZATION IS    50.00%


          -----------------------------
          STATIONARY POINT LOCATION RUN
          -----------------------------

 OBTAINING INITIAL HESSIAN, HESS=GUESS   
 CARTESIAN COORDINATE OPTIMIZATION USING BADGER'S RULE FORCE CONSTANT GUESS

          PARAMETERS CONTROLLING GEOMETRY SEARCH ARE
          METHOD =QA                  UPHESS =BFGS    
          NNEG   =         0          NFRZ   =         0
          NSTEP  =       999          IFOLOW =         1
          HESS   =GUESS               RESTAR =         F
          IHREP  =         0          HSSEND =         T
          NPRT   =         0          NPUN   =         0
          OPTTOL = 5.000E-04          RMIN   = 1.500E-03
          RMAX   = 1.000E-01          RLIM   = 7.000E-02
          DXMAX  = 3.000E-01          PURIFY =         F
          MOVIE  =         F          TRUPD  =         T
          TRMAX  = 5.000E-01          TRMIN  = 5.000E-02
          ITBMAT =         5          STPT   =         F
          STSTEP = 1.000E-02          PROJCT=          T

 BEGINNING GEOMETRY SEARCH POINT NSERCH=   0 ...

 COORDINATES OF ALL ATOMS ARE (ANGS)
   ATOM   CHARGE       X              Y              Z
 ------------------------------------------------------------
 O           8.0  -1.0848600000   1.3119000000   0.1783700000
 C           6.0  -0.0418000000   0.7131900000  -0.0533500000
 C           6.0   0.0165500000  -0.7656200000  -0.0616000000
 C           6.0   1.1912800000  -1.4081900000  -0.0837500000
 H           1.0   0.9035800000   1.2388600000  -0.2591000000
 H           1.0  -0.9365400000  -1.2868000000  -0.0363300000
 H           1.0   2.1459100000  -0.8870700000  -0.0884200000
 H           1.0   1.2207700000  -2.4943000000  -0.0810800000

          ********************
          1 ELECTRON INTEGRALS
          ********************
 ...... END OF ONE-ELECTRON INTEGRALS ......
 STEP CPU TIME =     0.00 TOTAL CPU TIME =          0.0 (      0.0 MIN)
 TOTAL WALL CLOCK TIME=          0.0 SECONDS, CPU UTILIZATION IS    20.00%

          -------------
          GUESS OPTIONS
          -------------
          GUESS =HUCKEL            NORB  =       0          NORDER=       0
          MIX   =       F          PRTMO =       F          PUNMO =       F
          TOLZ  = 1.0E-08          TOLE  = 1.0E-05
          SYMDEN=       F          PURIFY=       F

 INITIAL GUESS ORBITALS GENERATED BY HUCKEL   ROUTINE.
 HUCKEL GUESS REQUIRES     22304 WORDS.

 SYMMETRIES FOR INITIAL GUESS ORBITALS FOLLOW.   BOTH SET(S).
    15 ORBITALS ARE OCCUPIED (    4 CORE ORBITALS).
     5=A        6=A        7=A        8=A        9=A       10=A       11=A   
    12=A       13=A       14=A       15=A       16=A       17=A       18=A   
    19=A       20=A       21=A       22=A       23=A       24=A       25=A   
 ...... END OF INITIAL ORBITAL SELECTION ......
 STEP CPU TIME =     0.01 TOTAL CPU TIME =          0.0 (      0.0 MIN)
 TOTAL WALL CLOCK TIME=          0.1 SECONDS, CPU UTILIZATION IS    25.00%

                    ----------------------
                    AO INTEGRAL TECHNOLOGY
                    ----------------------
     S,P,L SHELL ROTATED AXIS INTEGRALS, REPROGRAMMED BY
        KAZUYA ISHIMURA (IMS) AND JOSE SIERRA (SYNSTAR).
     S,P,D,L SHELL ROTATED AXIS INTEGRALS PROGRAMMED BY
        KAZUYA ISHIMURA (INSTITUTE FOR MOLECULAR SCIENCE).
     S,P,D,F,G SHELL TO TOTAL QUARTET ANGULAR MOMENTUM SUM 5,
        ERIC PROGRAM BY GRAHAM FLETCHER (ELORET AND NASA ADVANCED
        SUPERCOMPUTING DIVISION, AMES RESEARCH CENTER).
     S,P,D,F,G,L SHELL GENERAL RYS QUADRATURE PROGRAMMED BY
        MICHEL DUPUIS (PACIFIC NORTHWEST NATIONAL LABORATORY).

          --------------------
          2 ELECTRON INTEGRALS
          --------------------

 DIRECT SCF METHOD SKIPS INTEGRAL STORAGE ON DISK.
 DIRECT TRANSFORMATION SKIPS AO INTEGRAL STORAGE ON DISK.
  ...... END OF TWO-ELECTRON INTEGRALS .....
 STEP CPU TIME =     0.01 TOTAL CPU TIME =          0.0 (      0.0 MIN)
 TOTAL WALL CLOCK TIME=          0.1 SECONDS, CPU UTILIZATION IS    30.00%

          --------------------------
             R-B3LYP SCF CALCULATION
          --------------------------

     NUCLEAR ENERGY =       102.7171806229
     MAXIT =  200     NPUNCH=    2
     EXTRAP=T  DAMP=F  SHIFT=F  RSTRCT=F  DIIS=T  DEM=F  SOSCF=F
         DENSITY MATRIX CONVERGENCE THRESHOLD=  2.00E-05
     COARSE -> FINE DFT GRID SWITCH THRESHOLD=  3.00E-04 (SWITCH IN $DFT)
                   HF -> DFT SWITCH THRESHOLD=  5.00E-03 (SWOFF IN $DFT)
     MEMORY REQUIRED FOR RHF ITERS=    598129 WORDS.

 DIRECT SCF CALCULATION, SCHWRZ=T   FDIFF=T,  DIRTHR=  0.00E+00 NITDIR=10
 SCHWARZ INEQUALITY OVERHEAD:       981 INTEGRALS, T=        0.00

 DFT CODE IS SWITCHING FROM THE FINE GRID NRAD= 96,  NLEB=  590
                      TO THE COARSE GRID NRAD0= 24, NLEB0=  110

     EXCHANGE FUNCTIONAL   =B88&HFX   
     CORRELATION FUNCTIONAL=LYP88&VWN5
     DFT THRESHOLD         =.883E-08
     GRID CHANGE THRESHOLD =.300E-03
 FOR AN EULER-MACLAURIN QUADRATURE USING  96 RADIAL POINTS:
 SMALLEST GAUSSIAN PRIMITIVE EXPONENT=        0.1831915800 OF TYPE -S-
 ON ATOM NUMBER   5 HAS RADIAL NORMALIZATION=  1.000000
  LARGEST GAUSSIAN PRIMITIVE EXPONENT=      322.0370000000 OF TYPE -S-
 ON ATOM NUMBER   1 HAS RADIAL NORMALIZATION=  1.000000
 DFT IS SWITCHED OFF, PERFORMING PURE SCF UNTIL SWOFF THRESHOLD IS REACHED.

                                                                                   NONZERO     BLOCKS
 ITER EX DEM     TOTAL ENERGY        E CHANGE  DENSITY CHANGE    DIIS ERROR      INTEGRALS    SKIPPED
   1  0  0     -189.2166578677  -189.2166578677   0.596704665   0.608807346         435625       3378
          * * *   INITIATING DIIS PROCEDURE   * * *
   2  1  0     -189.6376199588    -0.4209620911   0.098120815   0.146331703         435297       3612
   3  2  0     -189.6627991713    -0.0251792125   0.097552076   0.118434464         434031       4004
   4  3  0     -189.6867998017    -0.0240006303   0.020969570   0.009448645         432525       4332
   5  4  0     -189.6872091720    -0.0004093703   0.004496990   0.002525933         428887       4849
 CONVERGED TO SWOFF, SO DFT CALCULATION IS NOW SWITCHED ON.
          * * *   INITIATING DIIS PROCEDURE   * * *
   6  5  0     -190.7216484008    -1.0344392288   0.154784803   0.079674682         435649       3362
   7  6  0     -190.7342745313    -0.0126261305   0.087945580   0.051605568         434337       3950
   8  7  0     -190.7309633006     0.0033112307   0.067827840   0.082506507         433064       4183
   9  8  0     -190.7397801075    -0.0088168069   0.010403106   0.011682923         431808       4473
  10  9  0     -190.7400832658    -0.0003031582   0.001784952   0.002436672         427662       4953
  11 10  0     -190.7400891966    -0.0000059308   0.000803222   0.001114859         422286       5577
  12 11  0     -190.7400913377    -0.0000021411   0.000131166   0.000092163         415195       6148
 DFT CODE IS SWITCHING BACK TO THE FINE GRID
          * * *   INITIATING DIIS PROCEDURE   * * *
  13 12  0     -190.7380642022     0.0020271354   0.000906160   0.001252383         435685       3326
  14 13  0     -190.7380683048    -0.0000041026   0.000641956   0.000507609         421694       5562
  15 14  0     -190.7380678270     0.0000004778   0.000605245   0.000823586         415236       6245
  16 15  0     -190.7380686753    -0.0000008483   0.000138882   0.000115303         412587       6451
  17 16  0     -190.7380686967    -0.0000000213   0.000018066   0.000017396         401581       7138
  18 17  0     -190.7380686974    -0.0000000008   0.000008435   0.000011051         388256       7984

          -----------------
          DENSITY CONVERGED
          -----------------
     TIME TO FORM FOCK OPERATORS=       4.7 SECONDS (       0.3 SEC/ITER)
     FOCK TIME ON FIRST ITERATION=       0.0, LAST ITERATION=       0.7
     TIME TO SOLVE SCF EQUATIONS=       0.0 SECONDS (       0.0 SEC/ITER)

 FINAL R-B3LYP ENERGY IS     -190.7380686974 AFTER  18 ITERATIONS
 DFT EXCHANGE + CORRELATION ENERGY =       -21.0914991944
 TOTAL ELECTRON NUMBER             =        29.9999926115

          ------------
          EIGENVECTORS
          ------------

                      1          2          3          4          5
                  -19.0353   -10.2105   -10.1502   -10.1426    -1.0530
                     A          A          A          A          A   
    1  O  1  S    0.982698   0.000333  -0.000051   0.000009  -0.208722
    2  O  1  S    0.106747   0.001087  -0.000533  -0.000159   0.198140
    3  O  1  X    0.003831  -0.000702  -0.000036  -0.000160   0.128869
    4  O  1  Y   -0.002378   0.000690   0.000170  -0.000014  -0.076073
    5  O  1  Z   -0.000900   0.000133   0.000046   0.000001  -0.028731
    6  O  1  S   -0.060724  -0.002561   0.001609  -0.000134   0.648261
    7  O  1  X   -0.013435  -0.005179   0.000321   0.000080   0.122089
    8  O  1  Y    0.009318   0.001359  -0.000807   0.001547  -0.075406
    9  O  1  Z    0.003179   0.001248  -0.000175   0.000033  -0.027884
   10  C  2  S    0.000060   0.985276   0.002257   0.007872  -0.125177
   11  C  2  S    0.000383   0.105082  -0.000772  -0.002446   0.137309
   12  C  2  X   -0.001153  -0.000868  -0.000331  -0.000072  -0.141641
   13  C  2  Y    0.001794   0.000443   0.000596   0.000908   0.070951
   14  C  2  Z    0.000325   0.000222  -0.000016   0.000048   0.031177
   15  C  2  S    0.023989  -0.060416  -0.000573   0.025184   0.139497
   16  C  2  X   -0.026034  -0.010288   0.000351   0.002678   0.069505
   17  C  2  Y    0.004002   0.012418  -0.000580  -0.014125  -0.013587
   18  C  2  Z    0.005200   0.002028  -0.000173  -0.000204  -0.013780
   19  C  3  S    0.000106  -0.008073  -0.070226   0.983282  -0.020823
   20  C  3  S    0.000278  -0.003700  -0.012121   0.108045   0.022007
   21  C  3  X   -0.000949  -0.000409  -0.002922   0.000902  -0.004510
   22  C  3  Y   -0.000356  -0.001549   0.001345   0.000532   0.023650
   23  C  3  Z    0.000054   0.000038   0.000053  -0.000007   0.001396
   24  C  3  S   -0.001952   0.019788   0.032899  -0.087334   0.017379
   25  C  3  X    0.014281   0.003408   0.014987  -0.012897  -0.050836
   26  C  3  Y   -0.004983   0.014340  -0.007566  -0.007557   0.013855
   27  C  3  Z   -0.001549  -0.000510  -0.000204   0.000187   0.006713
   28  C  4  S   -0.000032  -0.003023   0.982993   0.069961  -0.003492
   29  C  4  S   -0.000512  -0.001662   0.106386   0.002870   0.006161
   30  C  4  X    0.000463   0.000620  -0.000393   0.002186  -0.005089
   31  C  4  Y   -0.001198  -0.001346   0.000206  -0.001461   0.007999
   32  C  4  Z    0.000051  -0.000069   0.000056  -0.000031   0.000295
   33  C  4  S   -0.008796  -0.000421  -0.079799   0.025982   0.036245
   34  C  4  X    0.003563  -0.001560   0.008977  -0.011169  -0.013655
   35  C  4  Y    0.002394   0.002041  -0.004846   0.012525  -0.011402
   36  C  4  Z    0.000141   0.000303  -0.000320   0.000210  -0.001254
   37  H  5  S    0.000774  -0.001652  -0.000200  -0.001454   0.023241
   38  H  5  S    0.005807   0.014849   0.000062  -0.000123  -0.033867
   39  H  6  S    0.001512  -0.000643  -0.000919  -0.002426   0.003732
   40  H  6  S    0.004636   0.003639   0.000809   0.010227  -0.015355
   41  H  7  S   -0.000564  -0.000301  -0.001824  -0.001905   0.003106
   42  H  7  S   -0.000314   0.000338   0.013493  -0.000502   0.003046
   43  H  8  S    0.000616   0.000010  -0.001792  -0.000767  -0.000881
   44  H  8  S    0.002253   0.002332   0.013631   0.003692  -0.012127

                      6          7          8          9         10
                   -0.8018    -0.6452    -0.5738    -0.4831    -0.4694
                     A          A          A          A          A   
    1  O  1  S    0.041341  -0.071641  -0.036566  -0.002902  -0.068401
    2  O  1  S   -0.040673   0.069880   0.037445   0.002845   0.061176
    3  O  1  X   -0.013756  -0.017255  -0.072574  -0.081579  -0.124928
    4  O  1  Y   -0.006178   0.034317  -0.048615  -0.138941   0.099240
    5  O  1  Z    0.003579   0.004828   0.012968   0.021672   0.045476
    6  O  1  S   -0.140600   0.266414   0.130510   0.012131   0.280516
    7  O  1  X   -0.012407  -0.010431  -0.062138  -0.067730  -0.108010
    8  O  1  Y   -0.000605   0.022449  -0.037581  -0.115282   0.086028
    9  O  1  Z    0.003126   0.002978   0.011486   0.017860   0.040533
   10  C  2  S   -0.053616   0.120782   0.089874   0.005886   0.057655
   11  C  2  S    0.063203  -0.137824  -0.099896  -0.003624  -0.070660
   12  C  2  X    0.057940  -0.088277  -0.167926  -0.140053   0.080757
   13  C  2  Y   -0.102323   0.125403  -0.113253  -0.252898  -0.035527
   14  C  2  Z   -0.010360   0.022897   0.030575   0.036686   0.008398
   15  C  2  S    0.102296  -0.338983  -0.296322  -0.031709  -0.197078
   16  C  2  X    0.016051  -0.055291  -0.133942  -0.106676  -0.001956
   17  C  2  Y   -0.021752   0.069538  -0.040542  -0.184754   0.030540
   18  C  2  Z   -0.003009   0.014785   0.024216   0.029364   0.019804
   19  C  3  S   -0.170021   0.060629  -0.098874   0.018840  -0.030716
   20  C  3  S    0.182427  -0.063380   0.102052  -0.017708   0.034579
   21  C  3  X    0.088080   0.094502  -0.130990  -0.046539   0.266444
   22  C  3  Y   -0.012533  -0.176065  -0.098565   0.240123  -0.018203
   23  C  3  Z   -0.001726   0.000645   0.008462   0.012259  -0.001344
   24  C  3  S    0.375753  -0.190677   0.338424  -0.086335   0.107170
   25  C  3  X    0.032714   0.013038  -0.064440  -0.023352   0.184789
   26  C  3  Y    0.008293  -0.045090  -0.038609   0.128353   0.038412
   27  C  3  Z   -0.001107   0.001100   0.003950   0.008519  -0.001375
   28  C  4  S   -0.150423  -0.140262   0.050109  -0.015626   0.008132
   29  C  4  S    0.165002   0.145756  -0.050635   0.011378  -0.001716
   30  C  4  X   -0.086590   0.025563  -0.139926   0.253002  -0.151190
   31  C  4  Y    0.056179  -0.058449  -0.024937   0.080436   0.299713
   32  C  4  Z    0.002183   0.001188   0.003376   0.001619   0.003764
   33  C  4  S    0.311297   0.430541  -0.182020   0.088779  -0.081396
   34  C  4  X   -0.008963  -0.001136  -0.066334   0.152291  -0.072230
   35  C  4  Y    0.000387  -0.020225  -0.032522   0.066221   0.184343
   36  C  4  Z    0.000688   0.001205   0.002098   0.001753   0.002037
   37  H  5  S    0.033858  -0.095421  -0.170442  -0.139063  -0.028789
   38  H  5  S    0.006461  -0.026636  -0.084314  -0.084806  -0.004704
   39  H  6  S    0.072092  -0.042209   0.157680  -0.059511  -0.105360
   40  H  6  S    0.005550  -0.009862   0.087038  -0.038247  -0.065671
   41  H  7  S    0.069593   0.095876  -0.110554   0.168890  -0.001819
   42  H  7  S    0.006587   0.031423  -0.066474   0.120778  -0.006719
   43  H  8  S    0.064801   0.123075  -0.030780  -0.028158  -0.198380
   44  H  8  S   -0.001628   0.048794  -0.017727  -0.018995  -0.158917

                     11         12         13         14         15
                   -0.4079    -0.3938    -0.3904    -0.2876    -0.2458
                     A          A          A          A          A   
    1  O  1  S   -0.078534  -0.036309   0.012797   0.000238  -0.000084
    2  O  1  S    0.067830   0.031091  -0.010579   0.000319   0.003453
    3  O  1  X   -0.299867  -0.116945   0.134329  -0.064424   0.224739
    4  O  1  Y    0.201637   0.041076   0.066937   0.008455   0.422083
    5  O  1  Z   -0.045605   0.303891   0.153876  -0.220030  -0.049006
    6  O  1  S    0.312859   0.142294  -0.052669  -0.008268  -0.021628
    7  O  1  X   -0.290573  -0.112012   0.125102  -0.073677   0.238765
    8  O  1  Y    0.190193   0.043086   0.058130   0.009164   0.459195
    9  O  1  Z   -0.044231   0.298663   0.152623  -0.241132  -0.051209
   10  C  2  S    0.031518  -0.004924   0.021177  -0.001222  -0.000085
   11  C  2  S   -0.055930  -0.005254  -0.021112  -0.000232   0.011953
   12  C  2  X    0.227212   0.165654   0.029152   0.002846  -0.054262
   13  C  2  Y   -0.067569  -0.127510   0.160557   0.002948  -0.110934
   14  C  2  Z   -0.164517   0.220865   0.160003  -0.051710   0.010591
   15  C  2  S   -0.033158   0.065566  -0.089854   0.015055  -0.058290
   16  C  2  X    0.025137   0.055903   0.060880  -0.017637  -0.000365
   17  C  2  Y    0.024449  -0.066817   0.122957   0.010210   0.138967
   18  C  2  Z   -0.111435   0.231274   0.149302  -0.072807  -0.004047
   19  C  3  S   -0.006870   0.007739  -0.015130   0.001312  -0.045911
   20  C  3  S   -0.000334  -0.008473   0.008866  -0.000428   0.029545
   21  C  3  X   -0.179895   0.015426  -0.169240   0.008989  -0.026116
   22  C  3  Y    0.029695   0.094684  -0.131112  -0.003112   0.192518
   23  C  3  Z   -0.061338   0.119240   0.087216   0.308145   0.003673
   24  C  3  S    0.068815  -0.028666   0.101629  -0.009630   0.436411
   25  C  3  X   -0.067074   0.048095  -0.134581   0.016164   0.094391
   26  C  3  Y    0.023998   0.061829  -0.097336   0.000101   0.214511
   27  C  3  Z   -0.054373   0.094840   0.070004   0.318728  -0.007473
   28  C  4  S    0.017184   0.006218   0.010157   0.000442   0.009779
   29  C  4  S   -0.024441  -0.007602  -0.012962  -0.000805  -0.004759
   30  C  4  X    0.150602  -0.033960   0.163504   0.001097   0.047357
   31  C  4  Y   -0.056606  -0.161834   0.163325  -0.001236  -0.041561
   32  C  4  Z   -0.036216   0.066914   0.046067   0.324379   0.007654
   33  C  4  S   -0.073577  -0.037150  -0.030661  -0.004924  -0.134446
   34  C  4  X    0.095974  -0.026835   0.116710   0.000645   0.090882
   35  C  4  Y   -0.021153  -0.123112   0.139340   0.002030  -0.105820
   36  C  4  Z   -0.029340   0.057295   0.040424   0.336561   0.013515
   37  H  5  S    0.095088   0.029178   0.032674   0.014068  -0.162324
   38  H  5  S    0.125387   0.039217   0.035278   0.014390  -0.306156
   39  H  6  S    0.110272  -0.051071   0.176818  -0.000399  -0.023491
   40  H  6  S    0.131525  -0.029130   0.148720   0.006929  -0.060831
   41  H  7  S    0.061126  -0.089016   0.163110  -0.001785  -0.014026
   42  H  7  S    0.073660  -0.078237   0.164035  -0.000435  -0.035862
   43  H  8  S    0.022339   0.114637  -0.134561   0.000710   0.039084
   44  H  8  S    0.038983   0.110927  -0.117761   0.002721   0.040303

                     16         17         18         19         20
                   -0.0565     0.0632     0.1322     0.1339     0.1691
                     A          A          A          A          A   
    1  O  1  S   -0.001606   0.005285   0.018307  -0.000511   0.000734
    2  O  1  S    0.001159  -0.003610  -0.010152   0.004833  -0.009298
    3  O  1  X    0.062673   0.038422  -0.078955   0.023196  -0.062543
    4  O  1  Y   -0.013000   0.018770   0.008192   0.041943  -0.007183
    5  O  1  Z    0.290723   0.214735  -0.013011  -0.019918   0.022678
    6  O  1  S    0.013680  -0.047068  -0.178754  -0.013667   0.047910
    7  O  1  X    0.084658   0.052699  -0.150232   0.055706  -0.083426
    8  O  1  Y   -0.016273   0.023969   0.005660   0.097645  -0.025305
    9  O  1  Z    0.381663   0.328945  -0.011652  -0.034794   0.032840
   10  C  2  S   -0.000990   0.003331  -0.033526   0.047632  -0.129645
   11  C  2  S   -0.000260   0.000577   0.028905  -0.027145   0.077053
   12  C  2  X   -0.059874  -0.088110   0.045317  -0.148526   0.192104
   13  C  2  Y    0.003110  -0.000742   0.037472  -0.103129   0.005060
   14  C  2  Z   -0.281071  -0.337692   0.040661   0.048213  -0.065896
   15  C  2  S    0.010867  -0.062405   0.306114  -0.597532   1.622541
   16  C  2  X   -0.053594  -0.177162   0.067184  -0.355862   0.625082
   17  C  2  Y   -0.000391   0.038938   0.273523  -0.227603  -0.164336
   18  C  2  Z   -0.332693  -0.540201   0.072327   0.126584  -0.170214
   19  C  3  S   -0.000465  -0.006751  -0.036506  -0.070024   0.029361
   20  C  3  S   -0.000232   0.001739   0.011190   0.050061  -0.015522
   21  C  3  X    0.000225  -0.004844  -0.137399  -0.127006   0.034583
   22  C  3  Y   -0.006618  -0.002750  -0.078282  -0.068466  -0.167239
   23  C  3  Z   -0.182207   0.354313  -0.028191  -0.015658   0.022575
   24  C  3  S    0.005623   0.113809   0.691822   0.723739  -0.312604
   25  C  3  X   -0.033803  -0.028010  -0.435872  -0.331738   0.151584
   26  C  3  Y   -0.004325   0.022966  -0.062375  -0.189262  -0.630817
   27  C  3  Z   -0.311090   0.669030  -0.048206  -0.042855   0.064786
   28  C  4  S   -0.004374  -0.013317  -0.114686   0.066632   0.061059
   29  C  4  S    0.004972   0.012562   0.070434  -0.041812  -0.032478
   30  C  4  X   -0.001980  -0.007368   0.097008  -0.162118  -0.101568
   31  C  4  Y    0.007233   0.000281  -0.172926  -0.137077  -0.107235
   32  C  4  Z    0.314887  -0.205724   0.008512   0.014378  -0.020496
   33  C  4  S    0.047194   0.131087   1.479389  -0.775681  -0.851559
   34  C  4  X    0.001596   0.009622   0.358022  -0.499845  -0.249706
   35  C  4  Y   -0.003851  -0.046968  -0.581445  -0.369965  -0.409361
   36  C  4  Z    0.492962  -0.469158   0.031393   0.030400  -0.039718
   37  H  5  S   -0.004074   0.015986   0.027837   0.034841  -0.093946
   38  H  5  S   -0.024921   0.091268  -0.287908   0.881066  -1.395470
   39  H  6  S   -0.011510  -0.018676  -0.044971  -0.105153  -0.007759
   40  H  6  S   -0.043627  -0.120488  -0.805578  -1.036698  -0.049662
   41  H  7  S    0.005089   0.001889  -0.013563   0.068983   0.103351
   42  H  7  S   -0.008387  -0.043946  -0.627856   1.204406   0.999248
   43  H  8  S   -0.005862  -0.012501  -0.098555  -0.006249  -0.043563
   44  H  8  S   -0.028811  -0.114370  -1.434858  -0.134514  -0.204770

                     21         22         23         24         25
                    0.2175     0.3123     0.3484     0.3980     0.6822
                     A          A          A          A          A   
    1  O  1  S   -0.000849  -0.114501  -0.011990  -0.055413   0.010566
    2  O  1  S    0.001143   0.059157   0.026169   0.007627  -0.002116
    3  O  1  X   -0.067734   0.193355   0.009422   0.051811  -0.038714
    4  O  1  Y   -0.079512  -0.074726  -0.159669  -0.073086  -0.037413
    5  O  1  Z    0.008312  -0.042342  -0.001089  -0.009263  -0.014768
    6  O  1  S    0.021680   1.321442  -0.033796   0.821307  -0.143655
    7  O  1  X   -0.104702   0.600563  -0.033923   0.232386  -0.098531
    8  O  1  Y   -0.142368  -0.211007  -0.283472  -0.343483   0.038564
    9  O  1  Z    0.015302  -0.125356   0.022021  -0.064070  -0.066372
   10  C  2  S    0.001153   0.049987   0.090105   0.073093   0.003019
   11  C  2  S   -0.013267   0.004206  -0.026766  -0.016241  -0.050928
   12  C  2  X    0.080007   0.101217   0.107258   0.185657  -0.238669
   13  C  2  Y    0.217351  -0.157437   0.246737   0.287234   0.052581
   14  C  2  Z   -0.017312  -0.030778  -0.018702  -0.055750  -0.655707
   15  C  2  S    0.258803  -0.431161  -1.441728  -1.210420   0.321027
   16  C  2  X    0.379487   1.031671  -0.170365   1.286723   0.049963
   17  C  2  Y    0.421699  -1.298237   1.216694   0.648754  -0.000039
   18  C  2  Z   -0.063447  -0.261241  -0.034230  -0.216816   0.661097
   19  C  3  S   -0.111095  -0.025281  -0.144487   0.007879  -0.022787
   20  C  3  S    0.062296   0.035302   0.052335   0.033535  -0.028856
   21  C  3  X   -0.132395  -0.041477   0.261015  -0.207186  -0.089450
   22  C  3  Y   -0.086741  -0.057798   0.183322   0.261819   0.202697
   23  C  3  Z    0.002239   0.029336  -0.006073   0.015511  -0.404866
   24  C  3  S    1.540102   0.170372   2.772547  -1.259990  -0.020657
   25  C  3  X   -0.674324   0.155957   1.579220  -1.915143   0.312699
   26  C  3  Y   -0.486042  -1.048490   0.971017   1.767047  -0.403337
   27  C  3  Z    0.035821   0.077939  -0.010316   0.103600   0.131666
   28  C  4  S    0.058681   0.015665   0.083323  -0.060946   0.005793
   29  C  4  S   -0.037502  -0.033965  -0.009272  -0.033083  -0.067240
   30  C  4  X    0.119969   0.172809  -0.015404  -0.131399   0.287619
   31  C  4  Y    0.220142  -0.137396  -0.142565  -0.125090  -0.133001
   32  C  4  Z   -0.006612   0.008864   0.001724  -0.003123  -0.535179
   33  C  4  S   -0.636807  -0.244867  -1.664952   2.112522  -0.277983
   34  C  4  X    0.631810   0.764491   0.943447  -2.016532  -0.232062
   35  C  4  Y    0.874860  -0.042956  -1.528339   0.594533   0.122466
   36  C  4  Z   -0.018852  -0.046916  -0.025635   0.008953   0.470254
   37  H  5  S    0.015098   0.056591   0.012332   0.044534  -0.088664
   38  H  5  S   -0.645221   0.123886  -0.090292  -0.936734   0.074897
   39  H  6  S   -0.018739   0.093999  -0.007872   0.052733  -0.079417
   40  H  6  S   -1.440709  -0.378565   0.831796  -0.363441   0.093922
   41  H  7  S    0.017457  -0.065047  -0.078458  -0.015731   0.037502
   42  H  7  S   -0.682622  -0.541081   0.552768   0.768586   0.041468
   43  H  8  S    0.031089   0.001505   0.014508   0.168435  -0.010662
   44  H  8  S    1.281483  -0.186177  -0.745921  -0.146517   0.051182

                     26         27         28         29         30
                    0.6875     0.7204     0.7576     0.7878     0.8088
                     A          A          A          A          A   
    1  O  1  S   -0.012216   0.045033  -0.007581  -0.021356   0.001639
    2  O  1  S   -0.007194  -0.061341   0.010850   0.035638  -0.012521
    3  O  1  X    0.041348  -0.187291   0.024251   0.070044   0.019569
    4  O  1  Y    0.078784   0.013778  -0.009684  -0.260028   0.021547
    5  O  1  Z   -0.021866   0.043576  -0.067885  -0.010383   0.016651
    6  O  1  S    0.222354  -0.241544   0.014064  -0.122171   0.007689
    7  O  1  X    0.103444  -0.253617   0.022535   0.061274   0.035482
    8  O  1  Y   -0.053220   0.136337  -0.033770  -0.252503  -0.013736
    9  O  1  Z   -0.065512   0.048032  -0.106858  -0.010198   0.089028
   10  C  2  S   -0.015059  -0.050361   0.008426   0.020880  -0.000967
   11  C  2  S    0.071406  -0.064749   0.025948  -0.076312  -0.025045
   12  C  2  X    0.029230  -0.476690  -0.032528   0.276839   0.104937
   13  C  2  Y   -0.117423   0.283857  -0.096433  -0.855180  -0.014019
   14  C  2  Z   -0.291879   0.033488  -0.685580  -0.037569   0.245772
   15  C  2  S   -0.535321   0.584692  -0.113668  -0.555597  -0.090688
   16  C  2  X    0.252692   0.147329   0.110348   0.061272  -0.138181
   17  C  2  Y    0.033895  -0.064917   0.097394   1.695037   0.045746
   18  C  2  Z    0.249160   0.031173   0.792283  -0.046813  -0.595717
   19  C  3  S    0.049122  -0.005224   0.004879   0.013983  -0.012384
   20  C  3  S    0.049797  -0.071819   0.016746   0.028539   0.017740
   21  C  3  X    0.127857  -0.145165   0.024937  -0.170691   0.049736
   22  C  3  Y   -0.522246  -0.261500   0.072690  -0.043817  -0.150699
   23  C  3  Z   -0.196453   0.157824   0.063555   0.081846  -0.931813
   24  C  3  S    0.123793  -0.044350   0.063371   0.689660  -0.043012
   25  C  3  X   -0.495163   0.524533  -0.129782   0.310522   0.040613
   26  C  3  Y    0.799229  -0.052460   0.007800   0.771603   0.179504
   27  C  3  Z    0.089760  -0.135406  -0.085533  -0.079867   1.308639
   28  C  4  S   -0.009145   0.014646  -0.005595  -0.002396   0.020283
   29  C  4  S    0.108247  -0.086456   0.015916   0.092979   0.020990
   30  C  4  X   -0.609625   0.120440  -0.038523   0.067745   0.124358
   31  C  4  Y    0.119078  -0.428409   0.093383   0.004211  -0.101671
   32  C  4  Z   -0.239152   0.207597   0.789538  -0.041113   0.370928
   33  C  4  S    0.507747  -0.309349   0.084941  -0.211176  -0.093827
   34  C  4  X    0.733624   0.221363  -0.008533  -0.443027  -0.195853
   35  C  4  Y   -0.036537   0.623654  -0.136428  -0.033698   0.151281
   36  C  4  Z    0.207794  -0.176210  -0.765717   0.061832  -0.696264
   37  H  5  S    0.080836  -0.520116   0.102925  -0.355752  -0.043629
   38  H  5  S   -0.094437   0.154544  -0.053435  -0.185139   0.036428
   39  H  6  S    0.324386   0.272439  -0.018427   0.350260   0.001766
   40  H  6  S   -0.226270   0.051980  -0.039447   0.015868   0.044484
   41  H  7  S   -0.272730  -0.314448   0.028205   0.189413   0.133771
   42  H  7  S   -0.155770  -0.045227   0.007477   0.159330  -0.018313
   43  H  8  S    0.123203   0.291854  -0.071279   0.206106   0.188325
   44  H  8  S   -0.094898   0.101767  -0.026631  -0.062558  -0.012460

                     31         32         33         34         35
                    0.8161     0.8513     0.9952     1.0404     1.0630
                     A          A          A          A          A   
    1  O  1  S    0.001888   0.008437   0.002448   0.005892   0.004403
    2  O  1  S    0.011986  -0.005523  -0.003848   0.004086   0.016798
    3  O  1  X   -0.088802  -0.184609   0.036035  -0.009044   0.014902
    4  O  1  Y   -0.079800   0.050561  -0.028418  -0.014531  -0.052582
    5  O  1  Z    0.028073   0.035859  -0.003843  -0.010313  -0.005243
    6  O  1  S   -0.007184   0.237434  -0.108777  -0.178290  -0.144270
    7  O  1  X   -0.066211  -0.133281   0.002870   0.076890  -0.082286
    8  O  1  Y   -0.008219  -0.010709   0.063040   0.242130   0.063451
    9  O  1  Z    0.049307   0.027623  -0.002840  -0.008145   0.023167
   10  C  2  S   -0.009221  -0.018981   0.004860  -0.043260   0.007540
   11  C  2  S    0.091819   0.317276  -0.170388   0.209777  -0.042952
   12  C  2  X   -0.195147  -0.725990   0.153352   0.464238  -0.149841
   13  C  2  Y   -0.067853  -0.089966   0.021363   0.490779   0.011111
   14  C  2  Z    0.154106   0.154878  -0.025092  -0.112728   0.004418
   15  C  2  S    0.298287   0.224291   0.748721   0.306675   0.149922
   16  C  2  X    0.230170   1.034952  -0.188470  -1.170324  -0.238338
   17  C  2  Y    0.208134   0.239667  -0.402987  -1.614000  -0.022079
   18  C  2  Z   -0.283351  -0.205638   0.043142   0.253421   0.037179
   19  C  3  S    0.047645   0.008268   0.017747   0.024601  -0.024629
   20  C  3  S   -0.097854   0.230015  -0.038357   0.107411   0.134270
   21  C  3  X   -0.493621   0.303266   0.286842  -0.074637  -0.784240
   22  C  3  Y    0.493816   0.346065   0.270824   0.406936  -0.109710
   23  C  3  Z   -0.229689  -0.018103  -0.010742   0.001704   0.023257
   24  C  3  S    0.313959  -0.070493  -0.131998  -0.254310   0.335822
   25  C  3  X    0.565275  -0.661843  -0.764838   0.928002   1.796566
   26  C  3  Y   -0.494225  -0.311240  -1.187394  -1.497214  -0.127666
   27  C  3  Z    0.349662   0.065545   0.011571  -0.075620  -0.058079
   28  C  4  S   -0.074957   0.024330  -0.003091   0.012114   0.025497
   29  C  4  S   -0.082361   0.153565   0.011410   0.133168  -0.083102
   30  C  4  X   -0.365301  -0.149927  -0.461284  -0.220098  -0.571938
   31  C  4  Y    0.232725   0.103274  -0.828442   0.373869  -0.015811
   32  C  4  Z    0.077651   0.001251   0.003960  -0.014051   0.006576
   33  C  4  S   -0.039193   0.120353   0.099567  -0.768762  -0.695995
   34  C  4  X    0.552783  -0.039890   0.975400   0.802213   1.244632
   35  C  4  Y   -0.385714  -0.007396   1.768615  -0.591117  -0.249973
   36  C  4  Z   -0.166099  -0.014678  -0.008055   0.025791  -0.011443
   37  H  5  S   -0.088598   0.386257  -0.166027  -0.635780   0.111111
   38  H  5  S   -0.194103  -0.812231   0.265722   1.704381  -0.001451
   39  H  6  S    0.200951   0.429102   0.156097   0.403704  -0.633137
   40  H  6  S   -0.033044  -0.585235  -0.777430  -0.304105   1.462841
   41  H  7  S   -0.528295   0.422618   0.474378   0.282446   0.563857
   42  H  7  S    0.197097  -0.207835  -1.429730  -0.410508  -1.011679
   43  H  8  S   -0.548164   0.336710  -0.548695   0.423557   0.285028
   44  H  8  S    0.094688  -0.259950   1.454207  -0.647616  -0.287645

                     36         37         38         39         40
                    1.1963     1.2881     1.3988     1.5091     1.5264
                     A          A          A          A          A   
    1  O  1  S   -0.051780  -0.019224  -0.022409   0.005476   0.001857
    2  O  1  S    0.075767   0.023140   0.054440  -0.012246   0.000037
    3  O  1  X   -0.291383   0.020776  -0.267389   0.024480   0.386667
    4  O  1  Y    0.021028   0.003563   0.039333  -0.122775  -0.151403
    5  O  1  Z    0.013638  -0.040552   0.106252  -0.818730   0.571648
    6  O  1  S    1.008707   0.240658   0.237697  -0.028366   0.036521
    7  O  1  X    0.362452   0.042573   0.349432  -0.067378  -0.466176
    8  O  1  Y   -0.360831  -0.133023  -0.131591   0.165695   0.187157
    9  O  1  Z   -0.061001   0.013779  -0.127942   0.898825  -0.629663
   10  C  2  S   -0.020407   0.016873  -0.029517   0.001345   0.001043
   11  C  2  S    0.374467  -0.804690   0.685977  -0.541594  -0.754438
   12  C  2  X   -0.260708  -0.133436   0.177272  -0.136067  -0.215053
   13  C  2  Y   -0.004959  -0.109337  -0.286136   0.036670   0.061553
   14  C  2  Z    0.016874   0.032672  -0.018759   0.056518   0.016326
   15  C  2  S   -1.891197   1.376196  -0.240964   1.625354   2.080450
   16  C  2  X    1.988072   1.122471   0.242263   0.407989   0.874335
   17  C  2  Y    0.831615   0.060779  -0.040636  -0.422196  -0.527989
   18  C  2  Z   -0.321837  -0.205679  -0.020547  -0.392880   0.114302
   19  C  3  S   -0.010146   0.031633  -0.013313   0.008530   0.012950
   20  C  3  S    0.004580  -0.894813   0.057315   0.182913   0.270059
   21  C  3  X    0.246899   0.326055   0.233093   0.067521   0.124604
   22  C  3  Y   -0.314454   0.219136   0.358910   0.092279   0.091139
   23  C  3  Z   -0.036896  -0.022913  -0.007842  -0.017411  -0.011468
   24  C  3  S    0.054557   1.016503   0.374030  -0.319094  -0.594400
   25  C  3  X   -1.789571  -1.612248  -1.475413  -0.315931  -0.688865
   26  C  3  Y    1.984815  -0.936218  -1.760695  -0.976472  -1.051577
   27  C  3  Z    0.176608   0.109460   0.039880   0.140472  -0.007071
   28  C  4  S   -0.008520   0.026787  -0.006814  -0.012229  -0.013474
   29  C  4  S    0.015410  -0.812869   0.278960   0.845631   0.935218
   30  C  4  X    0.003634  -0.249535  -0.167019  -0.050795  -0.074929
   31  C  4  Y    0.280669   0.225625  -0.275563   0.033637   0.121307
   32  C  4  Z   -0.003522   0.009015   0.000680  -0.011383   0.024126
   33  C  4  S    1.654480   1.764597  -0.197089  -1.286613  -1.120888
   34  C  4  X   -1.099513   0.605947   1.044073   0.341898   0.283548
   35  C  4  Y   -0.870436   0.244308   1.979030   0.290068   0.169166
   36  C  4  Z   -0.017437  -0.036062  -0.013910  -0.027668  -0.035483
   37  H  5  S   -0.771388  -0.201424  -0.116275  -0.143477  -0.250358
   38  H  5  S   -0.150151  -0.699446   0.135447  -0.357670  -0.501392
   39  H  6  S   -0.401602  -0.209795  -0.701590  -0.190991  -0.231187
   40  H  6  S    0.033049  -1.168313  -0.650345  -0.188752  -0.313063
   41  H  7  S    0.357261  -0.045613  -0.567721  -0.137370  -0.107538
   42  H  7  S    0.168777  -0.680586  -0.486871   0.199123   0.211203
   43  H  8  S   -0.495893   0.401867   0.517069   0.094884   0.070010
   44  H  8  S   -0.239402  -0.671859   0.709171   0.354554   0.278050

                     41         42         43         44
                    1.6091     1.6587     1.7964     3.1393
                     A          A          A          A   
    1  O  1  S    0.046525   0.003039  -0.000994   0.051508
    2  O  1  S   -0.182981  -0.014329   0.020584  -1.763353
    3  O  1  X    0.584249   0.572081   0.170702  -0.192237
    4  O  1  Y   -0.611709   0.710497   0.264271   0.133360
    5  O  1  Z   -0.128450  -0.139541  -0.004252   0.049710
    6  O  1  S    0.075299   0.102760  -0.003163   2.970391
    7  O  1  X   -0.807847  -0.753299  -0.256796   0.842524
    8  O  1  Y    0.742913  -0.972489  -0.474255  -0.614517
    9  O  1  Z    0.173814   0.178400   0.021244  -0.205597
   10  C  2  S    0.016554  -0.001753   0.031850   0.013067
   11  C  2  S    0.877852   0.203614   0.598743  -0.097249
   12  C  2  X   -0.143776  -0.108818  -0.026882   0.137117
   13  C  2  Y    0.053070  -0.167027   0.040861  -0.168943
   14  C  2  Z    0.034608   0.028031  -0.007337  -0.036812
   15  C  2  S   -0.838641   0.030958  -2.368743  -1.382724
   16  C  2  X    0.079200   0.860433  -0.305943   1.537578
   17  C  2  Y    0.246580   1.023004   1.322145  -0.129694
   18  C  2  Z    0.006909  -0.174255   0.041017  -0.298714
   19  C  3  S   -0.000868  -0.009919  -0.038514  -0.008811
   20  C  3  S   -0.160214   0.496190  -1.643815  -0.033877
   21  C  3  X    0.167458   0.028523  -0.216210   0.057075
   22  C  3  Y   -0.058132   0.134378  -0.060463   0.030890
   23  C  3  Z   -0.016933   0.009990   0.015984  -0.001486
   24  C  3  S    0.058786  -0.577097   5.039045   0.246086
   25  C  3  X   -0.932642  -0.818463   1.752731  -0.849595
   26  C  3  Y    0.418305   0.240683   0.880296   0.307361
   27  C  3  Z    0.049935   0.038065  -0.057774   0.089136
   28  C  4  S   -0.000864  -0.003736   0.015223   0.000624
   29  C  4  S   -0.408195  -0.357699   0.948867   0.075017
   30  C  4  X   -0.008648  -0.015472   0.038487  -0.039072
   31  C  4  Y   -0.027521  -0.011275  -0.037032   0.093908
   32  C  4  Z    0.001785  -0.003572  -0.004670  -0.005558
   33  C  4  S    1.256705   1.258040  -3.529692   0.440542
   34  C  4  X   -0.245369  -0.277461   0.659232  -0.179268
   35  C  4  Y    0.329379   0.344829  -1.026217  -0.192396
   36  C  4  Z   -0.005827   0.006344  -0.003176  -0.005816
   37  H  5  S   -0.074388  -0.342330   0.112992  -0.075696
   38  H  5  S    0.179116  -0.469814   0.123499  -0.350027
   39  H  6  S   -0.137692  -0.096031   0.031251  -0.126832
   40  H  6  S   -0.269617  -0.080118   0.075168  -0.261414
   41  H  7  S   -0.053312  -0.086093   0.236904   0.048645
   42  H  7  S   -0.171575  -0.114702   0.462599   0.023316
   43  H  8  S    0.004460  -0.002513   0.003643  -0.045006
   44  H  8  S   -0.035959  -0.037896   0.158748  -0.135552
 ...... END OF RHF CALCULATION ......
 STEP CPU TIME =     4.82 TOTAL CPU TIME =          4.8 (      0.1 MIN)
 TOTAL WALL CLOCK TIME=          5.2 SECONDS, CPU UTILIZATION IS    93.09%

     ---------------------------------------------------------------------
     PROPERTIES FOR THE B3LYP    DFT FUNCTIONAL (RHF  TYPE) DENSITY MATRIX
     ---------------------------------------------------------------------

          -----------------
          ENERGY COMPONENTS
          -----------------

         WAVEFUNCTION NORMALIZATION =       1.0000000000

                ONE ELECTRON ENERGY =    -461.1943397079
                TWO ELECTRON ENERGY =     167.7390903875
           NUCLEAR REPULSION ENERGY =     102.7171806229
                                      ------------------
                       TOTAL ENERGY =    -190.7380686974

 ELECTRON-ELECTRON POTENTIAL ENERGY =     167.7390903875
  NUCLEUS-ELECTRON POTENTIAL ENERGY =    -650.4676219627
   NUCLEUS-NUCLEUS POTENTIAL ENERGY =     102.7171806229
                                      ------------------
             TOTAL POTENTIAL ENERGY =    -380.0113509523
               TOTAL KINETIC ENERGY =     189.2732822548
                 VIRIAL RATIO (V/T) =       2.0077390027

          ---------------------------------------
          MULLIKEN AND LOWDIN POPULATION ANALYSES
          ---------------------------------------

     ATOMIC MULLIKEN POPULATION IN EACH MOLECULAR ORBITAL

                      1          2          3          4          5

                  2.000000   2.000000   2.000000   2.000000   2.000000

    1             1.992361  -0.001770   0.000000  -0.000007   1.595887
    2             0.007802   1.993269   0.000022   0.006245   0.385604
    3            -0.000293   0.005477   0.018141   1.972932   0.032337
    4            -0.000001   0.000094   1.976600   0.018760   0.003351
    5             0.000114   0.002858   0.000000  -0.000004  -0.014063
    6             0.000017   0.000072   0.000012   0.001951  -0.003027
    7            -0.000000   0.000001   0.002597  -0.000027   0.000157
    8             0.000000  -0.000001   0.002628   0.000149  -0.000248

                      6          7          8          9         10

                  2.000000   2.000000   2.000000   2.000000   2.000000

    1             0.044134   0.144816   0.101986   0.193865   0.332759
    2             0.191335   0.604801   0.581607   0.552641   0.088738
    3             0.929244   0.341777   0.479928   0.347746   0.436462
    4             0.727106   0.616258   0.237346   0.480740   0.698487
    5             0.009989   0.069937   0.250693   0.151612   0.004346
    6             0.036974   0.012850   0.224027   0.028399   0.090952
    7             0.035937   0.075079   0.116103   0.238771   0.000391
    8             0.025281   0.134482   0.008309   0.006226   0.347866

                     11         12         13         14         15

                  2.000000   2.000000   2.000000   2.000000   2.000000

    1             1.076451   0.804091   0.331929   0.360547   1.449192
    2             0.336034   0.617158   0.352329   0.009397   0.027918
    3             0.192453   0.176623   0.342618   0.761182   0.220684
    4             0.135557   0.208400   0.355637   0.867587   0.027122
    5             0.096182   0.007439   0.011220   0.001255   0.248624
    6             0.117454   0.017726   0.243243   0.000018   0.011499
    7             0.038991   0.060177   0.223711   0.000011   0.004010
    8             0.006876   0.108386   0.139312   0.000003   0.010951

               ----- POPULATIONS IN EACH AO -----
                             MULLIKEN      LOWDIN
              1  O  1  S      1.98585     1.98057
              2  O  1  S      0.43931     0.59437
              3  O  1  X      0.72275     0.70885
              4  O  1  Y      0.83012     0.82560
              5  O  1  Z      0.55738     0.54279
              6  O  1  S      1.55158     1.05253
              7  O  1  X      0.76865     0.83134
              8  O  1  Y      0.88949     0.93712
              9  O  1  Z      0.68110     0.69825
             10  C  2  S      1.98520     1.97481
             11  C  2  S      0.42995     0.44407
             12  C  2  X      0.61254     0.57301
             13  C  2  Y      0.61090     0.57251
             14  C  2  Z      0.39746     0.37852
             15  C  2  S      0.76542     0.55968
             16  C  2  X      0.20892     0.44265
             17  C  2  Y      0.29602     0.47420
             18  C  2  Z      0.44849     0.47608
             19  C  3  S      1.98617     1.97522
             20  C  3  S      0.40383     0.43535
             21  C  3  X      0.63339     0.59165
             22  C  3  Y      0.60325     0.57309
             23  C  3  Z      0.43777     0.41658
             24  C  3  S      0.95524     0.56859
             25  C  3  X      0.37779     0.52246
             26  C  3  Y      0.31058     0.50634
             27  C  3  Z      0.54928     0.56838
             28  C  4  S      1.98527     1.97553
             29  C  4  S      0.40672     0.43238
             30  C  4  X      0.62879     0.58813
             31  C  4  Y      0.60446     0.56033
             32  C  4  Z      0.40882     0.39389
             33  C  4  S      0.97874     0.58135
             34  C  4  X      0.35638     0.51904
             35  C  4  Y      0.45333     0.54422
             36  C  4  Z      0.53052     0.54785
             37  H  5  S      0.48212     0.48178
             38  H  5  S      0.35808     0.47075
             39  H  6  S      0.47222     0.46362
             40  H  6  S      0.30995     0.42483
             41  H  7  S      0.47310     0.46249
             42  H  7  S      0.32281     0.43526
             43  H  8  S      0.47448     0.46399
             44  H  8  S      0.31574     0.42996

          ----- MULLIKEN ATOMIC OVERLAP POPULATIONS -----
          (OFF-DIAGONAL ELEMENTS NEED TO BE MULTIPLIED BY 2)

             1           2           3           4           5

    1    8.0431073
    2    0.5096065   4.8320606
    3   -0.0723313   0.1767221   5.6144605
    4    0.0032766  -0.0439330   0.3906527   5.2658197
    5   -0.0574065   0.3154922  -0.1349087   0.0169164   0.6915316
    6   -0.0000045  -0.0341567   0.3744456  -0.0365681   0.0031920
    7    0.0000162  -0.0035324  -0.0532501   0.3837611   0.0054731
    8   -0.0000220   0.0026419  -0.0384784   0.3731204  -0.0000876

             6           7           8

    6    0.4759816
    7    0.0027027   0.4872653
    8   -0.0034251  -0.0265266   0.4829967

          TOTAL MULLIKEN AND LOWDIN ATOMIC POPULATIONS
       ATOM         MULL.POP.    CHARGE          LOW.POP.     CHARGE
    1 O             8.426242   -0.426242         8.171420   -0.171420
    2 C             5.754901    0.245099         5.895537    0.104463
    3 C             6.257312   -0.257312         6.157650   -0.157650
    4 C             6.353046   -0.353046         6.142716   -0.142716
    5 H             0.840202    0.159798         0.952527    0.047473
    6 H             0.782167    0.217833         0.888450    0.111550
    7 H             0.795909    0.204091         0.897753    0.102247
    8 H             0.790219    0.209781         0.893946    0.106054

          -------------------------------
          BOND ORDER AND VALENCE ANALYSIS     BOND ORDER THRESHOLD=0.050
          -------------------------------

                   BOND                       BOND                       BOND
  ATOM PAIR DIST  ORDER      ATOM PAIR DIST  ORDER      ATOM PAIR DIST  ORDER
    1   2  1.225  1.826        1   4  3.556  0.104        1   5  2.037  0.057
    2   3  1.480  0.957        2   5  1.101  0.837        3   4  1.339  1.800
    3   6  1.087  0.914        4   7  1.088  0.925        4   8  1.087  0.924

                       TOTAL       BONDED        FREE
      ATOM            VALENCE     VALENCE     VALENCE
    1 O                 2.045       2.045       0.000
    2 C                 3.618       3.618      -0.000
    3 C                 3.694       3.694       0.000
    4 C                 3.738       3.738       0.000
    5 H                 0.911       0.911       0.000
    6 H                 0.922       0.922      -0.000
    7 H                 0.927       0.927      -0.000
    8 H                 0.922       0.922       0.000

          ---------------------
          ELECTROSTATIC MOMENTS
          ---------------------

 POINT   1           X           Y           Z (BOHR)    CHARGE
                -0.000002    0.000005    0.000001        0.00 (A.U.)
         DX          DY          DZ         /D/  (DEBYE)
     2.103889   -1.933142   -0.389988    2.883657
 ...... END OF PROPERTY EVALUATION ......
 STEP CPU TIME =     0.01 TOTAL CPU TIME =          4.9 (      0.1 MIN)
 TOTAL WALL CLOCK TIME=          5.2 SECONDS, CPU UTILIZATION IS    92.57%

 BEGINNING ONE ELECTRON GRADIENT...
 ..... END OF 1-ELECTRON GRADIENT ......
 STEP CPU TIME =     0.01 TOTAL CPU TIME =          4.9 (      0.1 MIN)
 TOTAL WALL CLOCK TIME=          5.3 SECONDS, CPU UTILIZATION IS    92.41%

          ----------------------
          GRADIENT OF THE ENERGY
          ----------------------
 MEMORY FOR GRID POINT CONTRIBUTIONS TO THE DFT GRADIENT=    527831 WORDS.
 STEP CPU TIME =     1.19 TOTAL CPU TIME =          6.1 (      0.1 MIN)
 TOTAL WALL CLOCK TIME=          8.7 SECONDS, CPU UTILIZATION IS    69.90%
 THE COARSE/FINE SCHWARZ SCREENINGS SKIPPED         3945/        1776 BLOCKS.
 THE NUMBER OF GRADIENT INTEGRAL BLOCKS COMPUTED WAS     16326
 ...... END OF 2-ELECTRON GRADIENT ......
 STEP CPU TIME =     0.03 TOTAL CPU TIME =          6.1 (      0.1 MIN)
 TOTAL WALL CLOCK TIME=          8.7 SECONDS, CPU UTILIZATION IS    70.00%

          NSERCH=  0     ENERGY=    -190.7380687

                                 -----------------------
                                 GRADIENT (HARTREE/BOHR)
                                 -----------------------
        ATOM     ZNUC       DE/DX         DE/DY         DE/DZ
 --------------------------------------------------------------
    1  O            8.0     0.0130915    -0.0139249    -0.0008088
    2  C            6.0     0.0016370     0.0124303    -0.0020194
    3  C            6.0    -0.0134127    -0.0022880     0.0032075
    4  C            6.0     0.0072295     0.0045699     0.0002901
    5  H            1.0    -0.0054853     0.0019768    -0.0001288
    6  H            1.0    -0.0013375    -0.0010552    -0.0011287
    7  H            1.0     0.0014029    -0.0008366     0.0011334
    8  H            1.0    -0.0031253    -0.0008724    -0.0005453

          MAXIMUM GRADIENT = 0.0139249    RMS GRADIENT = 0.0059471

 NSERCH:   0  E=     -190.7380686974  GRAD. MAX=  0.0139249  R.M.S.=  0.0059471

          FORCE CONSTANT MATRIX NOT UPDATED --- TAKING FIRST STEP
          MIN SEARCH, CORRECT HESSIAN, TRYING PURE NR STEP
               NR STEP HAS LENGTH         = 116.755472
          TRIM/QA LAMBDA FOR NON-TS MODES =  -0.01687369
          TRIM/QA STEP HAS LENGTH         =   0.300000
          RADIUS OF STEP TAKEN=   0.30000  CURRENT TRUST RADIUS=   0.30000

 BEGINNING GEOMETRY SEARCH POINT NSERCH=   1 ...

 COORDINATES OF ALL ATOMS ARE (ANGS)
   ATOM   CHARGE       X              Y              Z
 ------------------------------------------------------------
 O           8.0  -1.1127115839   1.3658483976   0.1191413155
 C           6.0  -0.0623665805   0.7104597890   0.0202669281
 C           6.0   0.0344554087  -0.7588313297  -0.1255004596
 C           6.0   1.1868788835  -1.4302298575  -0.0942490281
 H           1.0   0.9027977767   1.2096849276  -0.2215026664
 H           1.0  -0.9215105329  -1.2745249987   0.0022818979
 H           1.0   2.1347403195  -0.8901371066  -0.1232163056
 H           1.0   1.2526063089  -2.5102998217  -0.0624816817

          INTERNUCLEAR DISTANCES (ANGS.)
          ------------------------------

                1 O          2 C          3 C          4 C          5 H     

   1 O       0.0000000    1.2419883 *  2.4269540 *  3.6265280    2.0500496 *
   2 C       1.2419883 *  0.0000000    1.4796753 *  2.4811853 *  1.1132028 *
   3 C       2.4269540 *  1.4796753 *  0.0000000    1.3341036 *  2.1536692 *
   4 C       3.6265280    2.4811853 *  1.3341036 *  0.0000000    2.6582035 *
   5 H       2.0500496 *  1.1132028 *  2.1536692 *  2.6582035 *  0.0000000  
   6 H       2.6498652 *  2.1630110 *  1.0936815 *  2.1163337 *  3.0902232  
   7 H       3.9615845    2.7220905 *  2.1043866 *  1.0913206 *  2.4365129 *
   8 H       4.5444736    3.4798410    2.1343629 *  1.0825342 *  3.7397781  

                6 H          7 H          8 H     

   1 O       2.6498652 *  3.9615845    4.5444736  
   2 C       2.1630110 *  2.7220905 *  3.4798410  
   3 C       1.0936815 *  2.1043866 *  2.1343629 *
   4 C       2.1163337 *  1.0913206 *  1.0825342 *
   5 H       3.0902232    2.4365129 *  3.7397781  
   6 H       0.0000000    3.0828839    2.5016230 *
   7 H       3.0828839    0.0000000    1.8457455 *
   8 H       2.5016230 *  1.8457455 *  0.0000000  

  * ... LESS THAN  3.000

 ...... END OF ONE-ELECTRON INTEGRALS ......
 STEP CPU TIME =     0.00 TOTAL CPU TIME =          6.1 (      0.1 MIN)
 TOTAL WALL CLOCK TIME=          8.7 SECONDS, CPU UTILIZATION IS    69.92%
  ...... END OF TWO-ELECTRON INTEGRALS .....
 STEP CPU TIME =     0.00 TOTAL CPU TIME =          6.1 (      0.1 MIN)
 TOTAL WALL CLOCK TIME=          8.7 SECONDS, CPU UTILIZATION IS    69.76%

          --------------------------
             R-B3LYP SCF CALCULATION
          --------------------------
         DENSITY MATRIX CONVERGENCE THRESHOLD=  1.00E-04
     COARSE -> FINE DFT GRID SWITCH THRESHOLD=  1.50E-03 (SWITCH IN $DFT)
                   HF -> DFT SWITCH THRESHOLD=  5.00E-03 (SWOFF IN $DFT)

 DIRECT SCF CALCULATION, SCHWRZ=T   FDIFF=T,  DIRTHR=  0.00E+00 NITDIR=10

 DFT CODE IS SWITCHING FROM THE FINE GRID NRAD= 96,  NLEB=  590
                      TO THE COARSE GRID NRAD0= 24, NLEB0=  110

                                                                                   NONZERO     BLOCKS
 ITER EX DEM     TOTAL ENERGY        E CHANGE  DENSITY CHANGE    DIIS ERROR      INTEGRALS    SKIPPED
          * * *   INITIATING DIIS PROCEDURE   * * *
   1  0  0     -190.7217850485  -190.7217850485   0.048696596   0.051023362         434190       3412
   2  1  0     -190.7348481036    -0.0130630552   0.005129054   0.007327722         431773       4284
   3  2  0     -190.7349808968    -0.0001327932   0.006197902   0.002979970         426311       5083
   4  3  0     -190.7350002846    -0.0000193878   0.002967598   0.002268491         422655       5431
   5  4  0     -190.7350113086    -0.0000110240   0.000539088   0.000789506         420175       5729
 DFT CODE IS SWITCHING BACK TO THE FINE GRID
          * * *   INITIATING DIIS PROCEDURE   * * *
   6  5  0     -190.7342080462     0.0008032624   0.000982387   0.000707880         434183       3411
   7  6  0     -190.7342100616    -0.0000020154   0.001112580   0.001090198         420479       5636
   8  7  0     -190.7342103245    -0.0000002629   0.000584835   0.001063331         416440       5998
   9  8  0     -190.7342114670    -0.0000011425   0.000099291   0.000077382         411406       6461
  10  9  0     -190.7342114793    -0.0000000123   0.000029854   0.000042213         395586       7412
  11 10  0     -190.7342114825    -0.0000000031   0.000007266   0.000008636         388947       7886

          -----------------
          DENSITY CONVERGED
          -----------------
     TIME TO FORM FOCK OPERATORS=       4.5 SECONDS (       0.4 SEC/ITER)
     FOCK TIME ON FIRST ITERATION=       0.1, LAST ITERATION=       0.7
     TIME TO SOLVE SCF EQUATIONS=       0.0 SECONDS (       0.0 SEC/ITER)

 FINAL R-B3LYP ENERGY IS     -190.7342114825 AFTER  11 ITERATIONS
 DFT EXCHANGE + CORRELATION ENERGY =       -21.0750318002
 TOTAL ELECTRON NUMBER             =        29.9999918602
 ...... END OF RHF CALCULATION ......
 STEP CPU TIME =     4.62 TOTAL CPU TIME =         10.7 (      0.2 MIN)
 TOTAL WALL CLOCK TIME=         13.8 SECONDS, CPU UTILIZATION IS    77.44%
 ..... END OF 1-ELECTRON GRADIENT ......
 STEP CPU TIME =     0.01 TOTAL CPU TIME =         10.7 (      0.2 MIN)
 TOTAL WALL CLOCK TIME=         13.8 SECONDS, CPU UTILIZATION IS    77.46%
 MEMORY FOR GRID POINT CONTRIBUTIONS TO THE DFT GRADIENT=    527831 WORDS.
 STEP CPU TIME =     1.19 TOTAL CPU TIME =         11.9 (      0.2 MIN)
 TOTAL WALL CLOCK TIME=         15.7 SECONDS, CPU UTILIZATION IS    75.86%
 ...... END OF 2-ELECTRON GRADIENT ......
 STEP CPU TIME =     0.02 TOTAL CPU TIME =         11.9 (      0.2 MIN)
 TOTAL WALL CLOCK TIME=         15.9 SECONDS, CPU UTILIZATION IS    75.13%

          NSERCH=  1     ENERGY=    -190.7342115

                                 -----------------------
                                 GRADIENT (HARTREE/BOHR)
                                 -----------------------
        ATOM     ZNUC       DE/DX         DE/DY         DE/DZ
 --------------------------------------------------------------
    1  O            8.0    -0.0082062     0.0104347    -0.0096841
    2  C            6.0    -0.0000957    -0.0092846     0.0372234
    3  C            6.0     0.0178639     0.0056475    -0.0286272
    4  C            6.0    -0.0075392    -0.0087295     0.0060928
    5  H            1.0    -0.0013854    -0.0003609    -0.0118117
    6  H            1.0    -0.0032451    -0.0000850     0.0064369
    7  H            1.0     0.0006101     0.0014967    -0.0011094
    8  H            1.0     0.0019976     0.0008811     0.0014793

          MAXIMUM GRADIENT = 0.0372234    RMS GRADIENT = 0.0117026

 NSERCH:   1  E=     -190.7342114825  GRAD. MAX=  0.0372234  R.M.S.=  0.0117026

          HESSIAN UPDATED USING THE BFGS FORMULA
             ACTUAL ENERGY CHANGE WAS   0.0038572150
          PREDICTED ENERGY CHANGE WAS  -0.0028035609 RATIO= -1.376
          MIN SEARCH, CORRECT HESSIAN, TRYING PURE NR STEP
               NR STEP HAS LENGTH         =  27.022346
          TRIM/QA LAMBDA FOR NON-TS MODES =  -0.15770457
          TRIM/QA STEP HAS LENGTH         =   0.150000
          RADIUS OF STEP TAKEN=   0.15000  CURRENT TRUST RADIUS=   0.15000

 BEGINNING GEOMETRY SEARCH POINT NSERCH=   2 ...

 COORDINATES OF ALL ATOMS ARE (ANGS)
   ATOM   CHARGE       X              Y              Z
 ------------------------------------------------------------
 O           8.0  -1.1100844994   1.3665864018   0.1345782565
 C           6.0  -0.0727417570   0.7101175093  -0.0379530911
 C           6.0   0.0329626856  -0.7598387637  -0.0822717298
 C           6.0   1.1861145264  -1.4275286424  -0.1049791421
 H           1.0   0.9113490768   1.2068613037  -0.2014315806
 H           1.0  -0.9206005316  -1.2760811943  -0.0058887933
 H           1.0   2.1337063818  -0.8896134875  -0.1235958028
 H           1.0   1.2541841175  -2.5085331267  -0.0637181169

          INTERNUCLEAR DISTANCES (ANGS.)
          ------------------------------

                1 O          2 C          3 C          4 C          5 H     

   1 O       0.0000000    1.2396767 *  2.4238945 *  3.6244995    2.0553852 *
   2 C       1.2396767 *  0.0000000    1.4744182 *  2.4816814 *  1.1144121 *
   3 C       2.4238945 *  1.4744182 *  0.0000000    1.3326982 *  2.1572369 *
   4 C       3.6244995    2.4816814 *  1.3326982 *  0.0000000    2.6504357 *
   5 H       2.0553852 *  1.1144121 *  2.1572369 *  2.6504357 *  0.0000000  
   6 H       2.6531730 *  2.1598328 *  1.0870250 *  2.1144748 *  3.0918085  
   7 H       3.9597059    2.7266990 *  2.1051540 *  1.0897842 *  2.4280491 *
   8 H       4.5437472    3.4815382    2.1329927 *  1.0839311 *  3.7337189  

                6 H          7 H          8 H     

   1 O       2.6531730 *  3.9597059    4.5437472  
   2 C       2.1598328 *  2.7266990 *  3.4815382  
   3 C       1.0870250 *  2.1051540 *  2.1329927 *
   4 C       2.1144748 *  1.0897842 *  1.0839311 *
   5 H       3.0918085    2.4280491 *  3.7337189  
   6 H       0.0000000    3.0809094    2.5003940 *
   7 H       3.0809094    0.0000000    1.8433788 *
   8 H       2.5003940 *  1.8433788 *  0.0000000  

  * ... LESS THAN  3.000

 ...... END OF ONE-ELECTRON INTEGRALS ......
 STEP CPU TIME =     0.00 TOTAL CPU TIME =         11.9 (      0.2 MIN)
 TOTAL WALL CLOCK TIME=         15.9 SECONDS, CPU UTILIZATION IS    74.89%
  ...... END OF TWO-ELECTRON INTEGRALS .....
 STEP CPU TIME =     0.01 TOTAL CPU TIME =         11.9 (      0.2 MIN)
 TOTAL WALL CLOCK TIME=         16.0 SECONDS, CPU UTILIZATION IS    74.72%

          --------------------------
             R-B3LYP SCF CALCULATION
          --------------------------
         DENSITY MATRIX CONVERGENCE THRESHOLD=  1.00E-04
     COARSE -> FINE DFT GRID SWITCH THRESHOLD=  1.50E-03 (SWITCH IN $DFT)
                   HF -> DFT SWITCH THRESHOLD=  5.00E-03 (SWOFF IN $DFT)

 DIRECT SCF CALCULATION, SCHWRZ=T   FDIFF=T,  DIRTHR=  0.00E+00 NITDIR=10

 DFT CODE IS SWITCHING FROM THE FINE GRID NRAD= 96,  NLEB=  590
                      TO THE COARSE GRID NRAD0= 24, NLEB0=  110

                                                                                   NONZERO     BLOCKS
 ITER EX DEM     TOTAL ENERGY        E CHANGE  DENSITY CHANGE    DIIS ERROR      INTEGRALS    SKIPPED
          * * *   INITIATING DIIS PROCEDURE   * * *
   1  0  0     -190.7353675408  -190.7353675408   0.031002001   0.033843685         433802       3402
   2  1  0     -190.7398356944    -0.0044681536   0.007004527   0.004023307         430308       4540
   3  2  0     -190.7398546134    -0.0000189190   0.005948911   0.003912480         424423       5288
   4  3  0     -190.7398828157    -0.0000282023   0.001446234   0.001593007         422057       5490
 DFT CODE IS SWITCHING BACK TO THE FINE GRID
          * * *   INITIATING DIIS PROCEDURE   * * *
   5  4  0     -190.7385312281     0.0013515877   0.001311296   0.001162961         433799       3400
   6  5  0     -190.7385320117    -0.0000007836   0.001064259   0.001780206         420450       5603
   7  6  0     -190.7385343687    -0.0000023571   0.000834155   0.001099492         418033       5890
   8  7  0     -190.7385355554    -0.0000011867   0.000304926   0.000168402         413072       6225
   9  8  0     -190.7385356410    -0.0000000856   0.000045170   0.000065708         403657       6900
  10  9  0     -190.7385356500    -0.0000000090   0.000009102   0.000011148         391680       7708

          -----------------
          DENSITY CONVERGED
          -----------------
     TIME TO FORM FOCK OPERATORS=       4.4 SECONDS (       0.4 SEC/ITER)
     FOCK TIME ON FIRST ITERATION=       0.1, LAST ITERATION=       0.7
     TIME TO SOLVE SCF EQUATIONS=       0.0 SECONDS (       0.0 SEC/ITER)

 FINAL R-B3LYP ENERGY IS     -190.7385356500 AFTER  10 ITERATIONS
 DFT EXCHANGE + CORRELATION ENERGY =       -21.0801828714
 TOTAL ELECTRON NUMBER             =        29.9999967704
 ...... END OF RHF CALCULATION ......
 STEP CPU TIME =     4.57 TOTAL CPU TIME =         16.5 (      0.3 MIN)
 TOTAL WALL CLOCK TIME=         26.3 SECONDS, CPU UTILIZATION IS    62.78%
 ..... END OF 1-ELECTRON GRADIENT ......
 STEP CPU TIME =     0.00 TOTAL CPU TIME =         16.5 (      0.3 MIN)
 TOTAL WALL CLOCK TIME=         26.4 SECONDS, CPU UTILIZATION IS    62.66%
 MEMORY FOR GRID POINT CONTRIBUTIONS TO THE DFT GRADIENT=    527831 WORDS.
 STEP CPU TIME =     1.19 TOTAL CPU TIME =         17.7 (      0.3 MIN)
 TOTAL WALL CLOCK TIME=         27.6 SECONDS, CPU UTILIZATION IS    64.22%
 ...... END OF 2-ELECTRON GRADIENT ......
 STEP CPU TIME =     0.03 TOTAL CPU TIME =         17.7 (      0.3 MIN)
 TOTAL WALL CLOCK TIME=         27.6 SECONDS, CPU UTILIZATION IS    64.24%

          NSERCH=  2     ENERGY=    -190.7385356

                                 -----------------------
                                 GRADIENT (HARTREE/BOHR)
                                 -----------------------
        ATOM     ZNUC       DE/DX         DE/DY         DE/DZ
 --------------------------------------------------------------
    1  O            8.0    -0.0057113     0.0090964     0.0008266
    2  C            6.0    -0.0063952    -0.0093019     0.0049598
    3  C            6.0     0.0155600     0.0041651    -0.0066892
    4  C            6.0    -0.0072205    -0.0067386    -0.0008991
    5  H            1.0     0.0018315     0.0005955    -0.0023275
    6  H            1.0    -0.0004330     0.0015678     0.0014681
    7  H            1.0     0.0001171     0.0006299     0.0012824
    8  H            1.0     0.0022514    -0.0000143     0.0013788

          MAXIMUM GRADIENT = 0.0155600    RMS GRADIENT = 0.0053758

 NSERCH:   2  E=     -190.7385356500  GRAD. MAX=  0.0155600  R.M.S.=  0.0053758

          HESSIAN UPDATED USING THE BFGS FORMULA
             ACTUAL ENERGY CHANGE WAS  -0.0043241675
[...]

          ATOMIC WEIGHTS (AMU)

    1     O                15.99491
    2     C                12.00000
    3     C                12.00000
    4     C                12.00000
    5     H                 1.00782
    6     H                 1.00782
    7     H                 1.00782
    8     H                 1.00782

 MODES    1 TO    6 ARE TAKEN AS ROTATIONS AND TRANSLATIONS.

 ANALYZING SYMMETRY OF NORMAL MODES...

     FREQUENCIES IN CM**-1, IR INTENSITIES IN DEBYE**2/AMU-ANGSTROM**2,
     REDUCED MASSES IN AMU.

                            1           2           3           4           5
       FREQUENCY:        12.64        7.16        0.16        0.02        0.05  
        SYMMETRY:         A           A           A           A           A   
    REDUCED MASS:      1.99017     4.72523     7.00084     6.98869     7.02087
    IR INTENSITY:      0.07557     0.07484     0.00000     0.00000     0.00000

  1   O            X -0.00815283  0.12234231  0.09720708  0.08586640 -0.03385465
                   Y -0.00118331  0.09988445 -0.08894409  0.09882229 -0.00333823
                   Z -0.10858706 -0.00760464  0.02228479  0.02462324  0.12944453
  2   C            X  0.00455963  0.06240829  0.09681267  0.08599581 -0.03384054
                   Y  0.00072935  0.00507293 -0.08958070  0.09901753 -0.00323649
                   Z  0.06963950 -0.00269894  0.02258852  0.02472706  0.12865725
  3   C            X -0.00617742 -0.07167305  0.09592169  0.08629987 -0.03358434
                   Y -0.00067940 -0.00070601 -0.08961439  0.09903335 -0.00321874
                   Z -0.08623529  0.00304883  0.02333430  0.02520263  0.12993699
  4   C            X  0.00881560 -0.12933174  0.09553384  0.08642279 -0.03358453
                   Y  0.00123428 -0.10775940 -0.09037034  0.09925133 -0.00309706
                   Z  0.12771176  0.00824032  0.02352532  0.02527759  0.12893275
  5   H            X  0.02562711  0.10563342  0.09707437  0.08589034 -0.03401414
                   Y  0.00391871 -0.08615195 -0.09022699  0.09920072 -0.00315271
                   Z  0.37043326 -0.00227003  0.02237688  0.02445943  0.12685875
  6   H            X -0.02666320 -0.11995128  0.09561456  0.08642058 -0.03340854
                   Y -0.00337844  0.08549746 -0.08903915  0.09885879 -0.00330333
                   Z -0.37978460  0.00275324  0.02379099  0.02547561  0.13169506
  7   H            X  0.02937740 -0.07862690  0.09584169  0.08630357 -0.03377522
                   Y  0.00372591 -0.19315923 -0.09097696  0.09942109 -0.00300527
                   Z  0.42156116  0.00840038  0.02304791  0.02499417  0.12715924
  8   H            X  0.00111364 -0.22792408  0.09486214  0.08665025 -0.03340519
                   Y  0.00020064 -0.11482515 -0.09041879  0.09926727 -0.00307643
                   Z  0.02074491  0.01254774  0.02414637  0.02561583  0.12981742

 TRANS. SAYVETZ    X -0.01434456 -0.02968348  5.40042967  4.82601346 -1.88927129
                   Y  0.00098569  0.04587906 -5.02092188  5.54813241 -0.18065786
                   Z  0.03289388  0.00304591  1.28391345  1.39766570  7.24034207
               TOTAL  0.03589910  0.05472910  7.48483339  7.48502829  7.48495401

   ROT. SAYVETZ    X -4.93862876 -1.21428716 -0.07057362 -0.03658715 -0.01349739
                   Y-10.04835988 -0.08603718 -0.03568969 -0.02085497  0.02940231
                   Z  0.46557304-20.72223965 -0.13955446  0.04491259  0.02570451
               TOTAL 11.20608534 20.75796502  0.16040523  0.06156858  0.04132067

                            6           7           8           9          10
       FREQUENCY:         5.60      189.90      324.08      569.13      624.93  
        SYMMETRY:         A           A           A           A           A   
    REDUCED MASS:      3.48757     3.40767     2.75919     5.04552     1.17730
    IR INTENSITY:      0.02848     0.05848     0.17581     0.11526     0.29331

  1   O            X  0.00747638  0.00857292 -0.07199819 -0.04773799  0.00012670
                   Y -0.00052202  0.00123070 -0.07599751  0.14665839  0.00022938
                   Z  0.12809680  0.12021041  0.00601635  0.00197224  0.00103559
  2   C            X  0.00682981 -0.00945300  0.04637271 -0.11023453  0.00167856
                   Y  0.00083629 -0.00139488  0.09728638  0.01472362  0.00010565
                   Z  0.10460022 -0.13318103 -0.00455585  0.00761756  0.02631511
  3   C            X -0.00685227 -0.00882369  0.08975644  0.07586233 -0.00779822
                   Y -0.00112817 -0.00138412  0.10774697 -0.06410047 -0.00112049
                   Z -0.12062198 -0.12408750 -0.00744358 -0.00462032 -0.11035569
  4   C            X -0.00659212  0.00743673 -0.02571018  0.08470486  0.00094292
                   Y  0.00034111  0.00113185 -0.10356939 -0.10417287  0.00011931
                   Z -0.12886300  0.10440781  0.00290163 -0.00503489  0.01255250
  5   H            X  0.01671380 -0.02352249 -0.02243583 -0.09948317  0.02742640
                   Y  0.00384567 -0.00359565  0.22918863 -0.00425928  0.00378534
                   Z  0.25528593 -0.33463505 -0.00113380  0.00671411  0.39188343
  6   H            X -0.01699055 -0.01234166  0.02571431  0.13463673  0.02096764
                   Y -0.00382175 -0.00211867  0.21630568 -0.17866917  0.00236020
                   Z -0.27595084 -0.17671778 -0.00322914 -0.00800368  0.29939082
  7   H            X  0.00378529  0.01372577  0.10232642  0.14116737 -0.03253100
                   Y  0.00290001  0.00240909 -0.32347094 -0.20055914 -0.00397001
                   Z  0.02975250  0.19838898 -0.00463353 -0.00768568 -0.46619039
  8   H            X -0.01663227  0.01633027 -0.27796042 -0.01775641  0.04286336
                   Y -0.00109461  0.00230725 -0.12377581 -0.11591440  0.00572932
                   Z -0.29142563  0.22563031  0.02183553  0.00187246  0.60959829

 TRANS. SAYVETZ    X  0.02698260  0.00118997 -0.00028119  0.00023229 -0.00090833
                   Y -0.00591517 -0.00108666  0.00022814 -0.00011882  0.00088921
                   Z  0.02573226  0.00040920 -0.00000306 -0.00006430 -0.00007934
               TOTAL  0.03775180  0.00166262  0.00036211  0.00026872  0.00127360

   ROT. SAYVETZ    X 15.76365091 -0.03054714 -0.00362404 -0.00019364 -0.00226396
                   Y  7.49583647 -0.01343452  0.00526436  0.00016428 -0.00229535
                   Z -0.85126163  0.00557143  0.01003154  0.00614761 -0.00201373
               TOTAL 17.47583762  0.03383275  0.01189449  0.00615286  0.00380122

                           11          12          13          14          15
       FREQUENCY:       932.80     1012.48     1052.84     1062.80     1170.50  
        SYMMETRY:         A           A           A           A           A   
    REDUCED MASS:      1.83056     1.30175     1.41280     1.36845     1.93417
    IR INTENSITY:      0.80141     1.36366     0.15910     0.17811     0.59223

  1   O            X -0.03394392 -0.00096502 -0.00157419  0.00247866  0.00891187
                   Y  0.00437730 -0.00010304 -0.00016295  0.00040265  0.02367323
                   Z  0.00233377 -0.01275551 -0.02192932  0.03424012 -0.00085875
  2   C            X  0.05998629  0.00333991  0.00592861 -0.01046330 -0.06848424
                   Y  0.13219860  0.00047243  0.00058985 -0.00163105 -0.12669870
                   Z -0.00537257  0.04651800  0.08503859 -0.14738707  0.00605717
  3   C            X -0.02442677  0.00052505 -0.00846138  0.00133798  0.06926183
                   Y -0.09202664 -0.00000241 -0.00102381  0.00019681  0.11244001
                   Z  0.00243652  0.00733006 -0.12248620  0.01847101 -0.00581845
  4   C            X -0.00373434 -0.00933196  0.00389955 -0.00092771 -0.00465781
                   Y -0.09535393 -0.00130248  0.00056377 -0.00014620 -0.06649472
                   Z  0.00128465 -0.13416475  0.05532102 -0.01371643  0.00097880
  5   H            X  0.01974013 -0.01207642 -0.02108951  0.04309425 -0.08005703
                   Y  0.21057895 -0.00182945 -0.00339795  0.00667204 -0.10907060
                   Z -0.00341228 -0.17310571 -0.29996456  0.61833244  0.00615705
  6   H            X -0.14393469  0.01097369  0.04625962  0.02724505 -0.15503829
                   Y  0.11640297  0.00208700  0.00680598  0.00447295  0.51971223
                   Z  0.00940286  0.16285853  0.66649074  0.39619630  0.00485601
  7   H            X -0.23343085  0.04361694  0.00897088  0.02414422 -0.15783926
                   Y  0.31610394  0.00615210  0.00092925  0.00337252  0.21348980
                   Z  0.01302681  0.63047905  0.12682281  0.34820072  0.00835734
  8   H            X  0.51742721  0.03795446 -0.02544240 -0.01426620  0.29787022
                   Y -0.05554703  0.00509209 -0.00328880 -0.00194461 -0.03842743
                   Z -0.03637841  0.53855304 -0.35812745 -0.20782636 -0.02025261

 TRANS. SAYVETZ    X  0.00002450  0.00005894 -0.00001098 -0.00014543  0.00017368
                   Y -0.00003278 -0.00004595  0.00000798  0.00014640 -0.00010266
                   Z  0.00001473  0.00002882  0.00000301  0.00001804 -0.00001446
               TOTAL  0.00004350  0.00008010  0.00001390  0.00020714  0.00020227

   ROT. SAYVETZ    X  0.00013154  0.00068883 -0.00192221  0.00018365 -0.00032899
                   Y -0.00027035 -0.00031003  0.00029339  0.00015684 -0.00017229
                   Z -0.00463045  0.00081974 -0.00028992 -0.00125777  0.00219757
               TOTAL  0.00464020  0.00111472  0.00196597  0.00128075  0.00222873

                           16          17          18          19          20
       FREQUENCY:      1329.57     1430.76     1495.15     1688.38     1719.30  
        SYMMETRY:         A           A           A           A           A   
    REDUCED MASS:      1.40223     1.18071     1.24254     3.95391     6.94881
    IR INTENSITY:      0.04309     0.11324     0.25350     0.18254     2.95704

  1   O            X -0.01298782  0.06338718  0.04096569  0.05334258 -0.10942176
                   Y  0.00810309 -0.00052257 -0.01617921 -0.03938639  0.07146958
                   Z  0.00083981 -0.00449221 -0.00274729 -0.00339079  0.00703650
  2   C            X  0.00988894 -0.03256458 -0.02275017 -0.05949625  0.16888452
                   Y  0.00386679 -0.04511912 -0.01742400  0.04413417 -0.12855977
                   Z -0.00072780  0.00288234  0.00183926  0.00378459 -0.01066795
  3   C            X -0.07714495  0.03000376 -0.08538275 -0.13021594 -0.06567853
                   Y -0.08026374 -0.05612414  0.07891505  0.09612103  0.04616037
                   Z  0.00620055 -0.00158468  0.00522396  0.00823178  0.00419635
  4   C            X  0.10459866 -0.01403887 -0.00902740  0.14833403  0.04734143
                   Y  0.04150171  0.02144517 -0.00882241 -0.08896648 -0.02338465
                   Z -0.00768597  0.00078939  0.00067321 -0.00957700 -0.00308766
  5   H            X  0.00649074 -0.43055482 -0.17898142 -0.03421801 -0.01079053
                   Y -0.00315947  0.74476154  0.26639715 -0.00784048  0.20502845
                   Z -0.00049207  0.02230636  0.00964155  0.00242082 -0.00137551
  6   H            X -0.44659117 -0.03534954  0.05544668 -0.02406277  0.03171350
                   Y  0.55744444  0.06217694 -0.18751051 -0.14002714 -0.12901290
                   Z  0.02558028  0.00161055 -0.00191930  0.00318940 -0.00119926
  7   H            X  0.29577480 -0.09776159  0.27546690 -0.06050378 -0.01532961
                   Y -0.28249180  0.13980031 -0.46627096  0.29658269  0.08503426
                   Z -0.01864198  0.00546082 -0.01463778  0.00162788  0.00017971
  8   H            X -0.09408282 -0.24468643  0.59285285 -0.23531534 -0.06148929
                   Y  0.01503458  0.01169873  0.01703873 -0.13413480 -0.03580108
                   Z  0.00657825  0.01709083 -0.04153910  0.01749130  0.00457452

 TRANS. SAYVETZ    X  0.00009869 -0.00000178 -0.00006841 -0.00019877  0.00004463
                   Y -0.00006260  0.00000178 -0.00000481  0.00017714 -0.00003031
                   Z  0.00000049  0.00002419  0.00006078 -0.00003993  0.00003355
               TOTAL  0.00011687  0.00002432  0.00009163  0.00026923  0.00006353

   ROT. SAYVETZ    X  0.00064915 -0.00008954 -0.00028363 -0.00027780 -0.00019901
                   Y  0.00001558  0.00095975  0.00041627 -0.00029203 -0.00007206
                   Z  0.00023931  0.00003684  0.00074073 -0.00026908  0.00161771
               TOTAL  0.00069203  0.00096463  0.00089577  0.00048462  0.00163149

                           21          22          23          24
       FREQUENCY:      2888.77     3149.05     3198.27     3242.39  
        SYMMETRY:         A           A           A           A   
    REDUCED MASS:      1.08319     1.06180     1.09221     1.11191
    IR INTENSITY:      2.46692     0.10319     0.03631     0.15929

  1   O            X -0.00045718 -0.00035322  0.00065468  0.00020020
                   Y  0.00054966  0.00041723 -0.00049054 -0.00012784
                   Z  0.00002621  0.00002069 -0.00004167 -0.00001279
  2   C            X -0.06983246  0.00001047 -0.00214368 -0.00083444
                   Y -0.03763985 -0.00156160  0.00133237  0.00061889
                   Z  0.00529259  0.00002186  0.00014322  0.00005242
  3   C            X -0.00109696  0.00122007 -0.07075730 -0.02227563
                   Y  0.00202387 -0.00590844 -0.03634730 -0.00991267
                   Z  0.00006281 -0.00003974  0.00527410  0.00164799
  4   C            X  0.00132515 -0.06671445  0.01544015 -0.02400797
                   Y -0.00053756  0.01065658  0.02063152 -0.08564475
                   Z -0.00008929  0.00453905 -0.00127410  0.00247091
  5   H            X  0.84989681  0.00767668  0.00949888  0.00404865
                   Y  0.43590661  0.00802456  0.00717710  0.00662525
                   Z -0.06417659 -0.00065791 -0.00075185 -0.00033838
  6   H            X -0.01465717  0.04965866  0.79712538  0.22032258
                   Y -0.00490266  0.02721138  0.45081877  0.12133222
                   Z  0.00105185 -0.00366422 -0.05975152 -0.01650810
  7   H            X -0.00441325  0.70613495 -0.14645729  0.39607235
                   Y -0.01113228  0.42305225 -0.08705199  0.21836270
                   Z  0.00042807 -0.05297569  0.01101616 -0.02958346
  8   H            X  0.00532132  0.02188285  0.01367030 -0.06252581
                   Y  0.00175134 -0.50292858 -0.19197089  0.78606180
                   Z -0.00039723  0.00317825  0.00084990 -0.00302525

 TRANS. SAYVETZ    X  0.00012685  0.00004174  0.00005161  0.00006905
                   Y -0.00012844 -0.00007758 -0.00007367 -0.00006436
                   Z  0.00002501  0.00004201  0.00003423  0.00000910
               TOTAL  0.00018225  0.00009760  0.00009624  0.00009483

   ROT. SAYVETZ    X -0.00004312  0.00001995  0.00013408 -0.00007013
                   Y  0.00013259  0.00011005 -0.00003056 -0.00005022
                   Z  0.00006088 -0.00062613 -0.00023965  0.00020595
               TOTAL  0.00015214  0.00063604  0.00027630  0.00022328

 REFERENCE ON SAYVETZ CONDITIONS - A. SAYVETZ, J.CHEM.PHYS., 7, 383-389(1939).

 NOTE - THE MODES J,K ARE ORTHONORMALIZED ACCORDING TO
 SUM ON I   M(I) * (X(I,J)*X(I,K) + Y(I,J)*Y(I,K) + Z(I,J)*Z(I,K)) = DELTA(J,K)

  MODE FREQ(CM**-1)  SYMMETRY  RED. MASS  IR INTENS.
     1      12.640    A        1.990174    0.075565
     2       7.164    A        4.725227    0.074838
     3       0.165    A        7.000843    0.000002
     4       0.015    A        6.988693    0.000001
     5       0.050    A        7.020872    0.000001
     6       5.601    A        3.487571    0.028478
     7     189.899    A        3.407673    0.058478
     8     324.080    A        2.759190    0.175808
     9     569.132    A        5.045520    0.115261
    10     624.935    A        1.177298    0.293312
    11     932.795    A        1.830559    0.801408
    12    1012.480    A        1.301754    1.363661
    13    1052.840    A        1.412805    0.159096
    14    1062.805    A        1.368451    0.178110
    15    1170.499    A        1.934172    0.592229
    16    1329.573    A        1.402229    0.043091
    17    1430.764    A        1.180710    0.113242
    18    1495.148    A        1.242537    0.253496
    19    1688.378    A        3.953911    0.182539
    20    1719.296    A        6.948811    2.957035
    21    2888.773    A        1.083186    2.466921
    22    3149.049    A        1.061796    0.103192
    23    3198.266    A        1.092208    0.036310
    24    3242.393    A        1.111908    0.159290

     -------------------------------
     THERMOCHEMISTRY AT T=  298.15 K
     -------------------------------

 USING IDEAL GAS, RIGID ROTOR, HARMONIC NORMAL MODE APPROXIMATIONS.
 P=  1.01325E+05 PASCAL.
 ALL FREQUENCIES ARE SCALED BY   1.00000
 THE MOMENTS OF INERTIA ARE (IN AMU*BOHR**2)
             37.50676           393.44672           430.95348
 THE ROTATIONAL SYMMETRY NUMBER IS  1.0
 THE ROTATIONAL CONSTANTS ARE (IN GHZ)
     48.07368     4.58280     4.18395
      7 -     24 VIBRATIONAL MODES ARE USED IN THERMOCHEMISTRY.
 THE HARMONIC ZERO POINT ENERGY IS (SCALED BY   1.000)
        0.061695 HARTREE/MOLECULE    13540.551015 CM**-1/MOLECULE 
       38.714417 KCAL/MOL              161.981120 KJ/MOL

               Q               LN Q
 ELEC.     1.00000E+00       0.000000
 TRANS.    1.64832E+07      16.617850
 ROT.      2.85466E+04      10.259293
 VIB.      2.46089E+00       0.900523
 TOT.      1.15794E+12      27.777667

              E         H         G         CV        CP        S
           KJ/MOL    KJ/MOL    KJ/MOL   J/MOL-K   J/MOL-K   J/MOL-K
 ELEC.      0.000     0.000     0.000     0.000     0.000     0.000
 TRANS.     3.718     6.197   -41.195    12.472    20.786   158.954
 ROT.       3.718     3.718   -25.432    12.472    12.472    97.772
 VIB.     165.862   165.862   159.749    31.876    31.876    20.505
 TOTAL    173.299   175.778    93.122    56.819    65.134   277.230
 VIB. THERMAL CORRECTION E(T)-E(0) = H(T)-H(0) =      3881.299 J/MOL

              E         H         G         CV        CP        S
         KCAL/MOL  KCAL/MOL  KCAL/MOL CAL/MOL-K CAL/MOL-K CAL/MOL-K
 ELEC.      0.000     0.000     0.000     0.000     0.000     0.000
 TRANS.     0.889     1.481    -9.846     2.981     4.968    37.991
 ROT.       0.889     0.889    -6.078     2.981     2.981    23.368
 VIB.      39.642    39.642    38.181     7.619     7.619     4.901
 TOTAL     41.420    42.012    22.257    13.580    15.567    66.260
 VIB. THERMAL CORRECTION E(T)-E(0) = H(T)-H(0) =       927.653 CAL/MOL
 ......END OF NORMAL COORDINATE ANALYSIS......
 STEP CPU TIME =     0.00 TOTAL CPU TIME =        434.4 (      7.2 MIN)
 TOTAL WALL CLOCK TIME=        497.0 SECONDS, CPU UTILIZATION IS    87.42%
                601109  WORDS OF DYNAMIC MEMORY USED
 EXECUTION OF GAMESS TERMINATED NORMALLY Fri Oct  7 20:54:09 2022
 DDI: 263640 bytes (0.3 MB / 0 MWords) used by master data server.

 ----------------------------------------
 CPU timing information for all processes
 ========================================
 0: 430.464 + 3.973 = 434.437
 ----------------------------------------
 ddikick.x: exited gracefully.
----- accounting info -----
Files used on the master node chemcompute-node-1.novalocal were:
-rw-r--r--. 1 chemcomp chemcomp      955 Oct  7 20:45 /scratch/121617/461724.F05
-rw-rw-r--. 1 chemcomp chemcomp 70451200 Oct  7 20:54 /scratch/121617/461724.F10
-rw-rw-r--. 1 chemcomp chemcomp  4140256 Oct  7 20:54 /scratch/121617/461724.F22
Fri Oct  7 20:54:12 UTC 2022
0.099u 0.037s 8:20.35 0.0%	0+0k 8+208io 0pf+0w
Finishing Up...
Looking for IR data...
Looking for Raman data...
vibramans not found
Looking for thermodynamics data...
Looking for UV-Vis data...
chemcompute.org
{'UTCtimestamp': '2022-10-07T20:54:14.264384', 'cluster': 'jetstream2', 'clusterJobNumber': '121617', 'status': 'COMPLETE', 'nodeList': 'chemcompute-node-1'}
121617
