chemcompute.org
{'UTCtimestamp': '2022-10-07T21:23:19.629666', 'cluster': 'jetstream2', 'clusterJobNumber': '121631', 'status': 'RUNNING', 'nodeList': 'chemcompute-node-0'}
----- GAMESS execution script 'rungms' -----
This job is running on host chemcompute-node-0.novalocal
under operating system Linux at Fri Oct 7 21:23:23 UTC 2022
SLURM has assigned the following compute nodes to this run:
Available scratch disk space (Kbyte units) at beginning of the job is
Filesystem     1K-blocks     Used Available Use% Mounted on
/dev/sda1       62903276 11806028  51097248  19% /
GAMESS temporary binary files will be written to /scratch/121631
GAMESS supplementary output files will be written to /data/slurm/46/461741
Copying input file 461741.inp to your run's scratch directory...
The generated host list is
chemcompute-node-0.novalocal

 Distributed Data Interface kickoff program.
 Initiating 1 compute processes on 1 nodes to run the following command:
 /data/gamess-2019R1-avx2-ddi/gamess.00.x 461741 

          ******************************************************
          *         GAMESS VERSION = 30 JUN 2019 (R1)          *
          *             FROM IOWA STATE UNIVERSITY             *
          * M.W.SCHMIDT, K.K.BALDRIDGE, J.A.BOATZ, S.T.ELBERT, *
          *   M.S.GORDON, J.H.JENSEN, S.KOSEKI, N.MATSUNAGA,   *
          *          K.A.NGUYEN, S.J.SU, T.L.WINDUS,           *
          *       TOGETHER WITH M.DUPUIS, J.A.MONTGOMERY       *
          *         J.COMPUT.CHEM.  14, 1347-1363(1993)        *
          **************** 64 BIT INTEL VERSION ****************

  SINCE 1993, STUDENTS AND POSTDOCS WORKING AT IOWA STATE UNIVERSITY
  AND ALSO IN THEIR VARIOUS JOBS AFTER LEAVING ISU HAVE MADE IMPORTANT
  CONTRIBUTIONS TO THE CODE:
     IVANA ADAMOVIC, CHRISTINE AIKENS, YURI ALEXEEV, POOJA ARORA,
     ANDREY ASADCHEV, ROB BELL, PRADIPTA BANDYOPADHYAY, JONATHAN BENTZ,
     COLLEEN BERTONI, BRETT BODE, KURT BRORSEN, CALEB CARLIN, GALINA CHABAN,
     WEI CHEN, CHEOL HO CHOI, PAUL DAY, ALBERT DEFUSCO, NUWAN DESILVA,
     TIM DUDLEY, DMITRI FEDOROV, ALEX FINDLATER, GRAHAM FLETCHER, 
     MARK FREITAG, KURT GLAESEMANN, ANASTASIA GUNINA,
     DAN KEMP, GRANT MERRILL, NORIYUKI MINEZAWA, JONATHAN MULLIN,
     TAKESHI NAGATA, SEAN NEDD, HEATHER NETZLOFF, BOSILJKA NJEGIC, RYAN OLSON,
     MIKE PAK, BUU PHAM,
     SPENCER PRUITT, LUKE ROSKOP, JIM SHOEMAKER, LYUDMILA SLIPCHENKO,
     TONY SMITH, SAROM SOK LEANG, JIE SONG, TETSUYA TAKETSUGU, SIMON WEBB,
     PENG XU, SOOHAENG YOO, FEDERICO ZAHARIEV

  ADDITIONAL CODE HAS BEEN PROVIDED BY COLLABORATORS IN OTHER GROUPS:
     IOWA STATE UNIVERSITY:
          JOE IVANIC, AARON WEST, LAIMUTIS BYTAUTAS, KLAUS RUEDENBERG
     UNIVERSITY OF TOKYO: KIMIHIKO HIRAO, TAKAHITO NAKAJIMA,
          TAKAO TSUNEDA, MUNEAKI KAMIYA, SUSUMU YANAGISAWA,
          KIYOSHI YAGI, MAHITO CHIBA, SEIKEN TOKURA, NAOAKI KAWAKAMI
     UNIVERSITY OF AARHUS: FRANK JENSEN
     UNIVERSITY OF IOWA: VISVALDAS KAIRYS, HUI LI
     NATIONAL INST. OF STANDARDS AND TECHNOLOGY: WALT STEVENS, DAVID GARMER
     UNIVERSITY OF PISA: BENEDETTA MENNUCCI, JACOPO TOMASI
     UNIVERSITY OF MEMPHIS: HENRY KURTZ, PRAKASHAN KORAMBATH
     UNIVERSITY OF ALBERTA: TOBY ZENG, MARIUSZ KLOBUKOWSKI
     UNIVERSITY OF NEW ENGLAND: MARK SPACKMAN
     MIE UNIVERSITY: HIROAKI UMEDA
     NAT. INST. OF ADVANCED INDUSTRIAL SCIENCE AND TECHNOLOGY: KAZUO KITAURA
     MICHIGAN STATE UNIVERSITY:
          KAROL KOWALSKI, MARTA WLOCH, JEFFREY GOUR, JESSE LUTZ,
          WEI LI, JUN SHEN, J. EMILIANO DEUSTUA, PIOTR PIECUCH
     UNIVERSITY OF MINNESOTA:
          YINAN SHU
     UNIVERSITY OF SILESIA: MONIKA MUSIAL, STANISLAW KUCHARSKI
     FACULTES UNIVERSITAIRES NOTRE-DAME DE LA PAIX:
          OLIVIER QUINET, BENOIT CHAMPAGNE
     UNIVERSITY OF CALIFORNIA - SANTA BARBARA: BERNARD KIRTMAN
     INSTITUTE FOR MOLECULAR SCIENCE:
          KAZUYA ISHIMURA, MICHIO KATOUDA, AND SHIGERU NAGASE
     UNIVERSITY OF NOTRE DAME: ANNA POMOGAEVA, DAN CHIPMAN
     KYUSHU UNIVERSITY:
          HARUYUKI NAKANO,
          FENG LONG GU, JACEK KORCHOWIEC, MARCIN MAKOWSKI, AND YURIKO AOKI,
          HIROTOSHI MORI AND EISAKU MIYOSHI
     PENNSYLVANIA STATE UNIVERSITY:
          TZVETELIN IORDANOV, CHET SWALINA, JONATHAN SKONE,
          SHARON HAMMES-SCHIFFER
     WASEDA UNIVERSITY:
          MASATO KOBAYASHI, TOMOKO AKAMA, TSUGUKI TOUMA,
          TAKESHI YOSHIKAWA, YASUHIRO IKABATA, JUNJI SEINO,
          YUYA NAKAJIMA, HIROMI NAKAI
     NANJING UNIVERSITY: SHUHUA LI
     UNIVERSITY OF NEBRASKA:
          PEIFENG SU, DEJUN SI, NANDUN THELLAMUREGE, YALI WANG, HUI LI
     UNIVERSITY OF ZURICH: ROBERTO PEVERATI, KIM BALDRIDGE
     N. COPERNICUS UNIVERSITY AND JACKSON STATE UNIVERSITY:
          MARIA BARYSZ
     UNIVERSITY OF COPENHAGEN: Jimmy Kromann, CASPER STEINMANN
     TOKYO INSTITUTE OF TECHNOLOGY: HIROYA NAKATA
     NAGOYA UNIVERSITY: YOSHIO NISHIMOTO, STEPHAN IRLE
     MOSCOW STATE UNIVERSITY: VLADIMIR MIRONOV
     A.N.NESMEYANOV INSTITUTE OF ORGANOELEMENT COMPOUNDS OF RUSSIAN ACADEMY OF SCIENCES:
          IGOR S. GERASIMOV

 EXECUTION OF GAMESS BEGUN Fri Oct  7 21:23:23 2022

            ECHO OF THE FIRST FEW INPUT CARDS -
 INPUT CARD>!                                                                               
 INPUT CARD>!   GAMESS Calculation input file                                               
 INPUT CARD>!                                                                               
 INPUT CARD>!                                                                               
 INPUT CARD> $CONTRL SCFTYP=RHF MAXIT=200 RUNTYP=OPTIMIZE                                   
 INPUT CARD>         COORD=UNIQUE MULT=1                                                    
 INPUT CARD>         ICHARG=0                                                               
 INPUT CARD>         DFTTYP=B3LYP                                                           
 INPUT CARD>         MOLPLT=.FALSE. PLTORB=.FALSE.  $END                                    
 INPUT CARD> $SYSTEM TIMLIM=2879 MWORDS=250  $END                                           
 INPUT CARD>                                                                                
 INPUT CARD> $FORCE METHOD=SEMINUM NVIB=2 $END                                              
 INPUT CARD> $STATPT OPTTOL=0.0005 NSTEP=999 $END                                           
 INPUT CARD> $STATPT IHREP=0 HSSEND=.TRUE.  $END                                            
 INPUT CARD>                                                                                
 INPUT CARD> $DFT    METHOD=GRID  NLEB=590  $END                                            
 INPUT CARD>                                                                                
 INPUT CARD> $BASIS  GBASIS=N21 NGAUSS=3 $END                                               
 INPUT CARD>                                                                                
 INPUT CARD> $SCF    DIRSCF=.T. $END                                                        
 INPUT CARD> $GUESS  GUESS=HUCKEL  $END                                                     
 INPUT CARD>                                                                                
 INPUT CARD> $DATA                                                                          
 INPUT CARD>                                                                                
 INPUT CARD>  C1                                                                            
 INPUT CARD>C     6.0    -1.22297    -0.72063     0.27122                                   
 INPUT CARD>C     6.0     0.00897     0.10733    -0.00869                                   
 INPUT CARD>N     7.0     0.05616     1.39411    -0.04940                                   
 INPUT CARD>O     8.0     1.14104    -0.60031    -0.21635                                   
 INPUT CARD>H     1.0    -1.10050    -1.23705     1.22790                                   
 INPUT CARD>H     1.0    -1.35644    -1.45752    -0.52670                                   
 INPUT CARD>H     1.0    -2.11235    -0.08578     0.31778                                   
 INPUT CARD>H     1.0    -0.86715     1.79832     0.13132                                   
 INPUT CARD>H     1.0     1.00203    -1.55843    -0.15617                                   
 INPUT CARD> $END                                                                           
 INPUT CARD>                                                                                
 INPUT CARD>                                                                                
 INPUT CARD>! Customizations after this line are persisted when using Do More Calculations  
  250000000 WORDS OF MEMORY AVAILABLE

     BASIS OPTIONS
     -------------
     GBASIS=N21          IGAUSS=       3      POLAR=NONE    
     NDFUNC=       0     NFFUNC=       0     DIFFSP=       F
     NPFUNC=       0      DIFFS=       F     BASNAM=        


     RUN TITLE
     ---------
                                                                                 

 THE POINT GROUP OF THE MOLECULE IS C1      
 THE ORDER OF THE PRINCIPAL AXIS IS     0

 ATOM      ATOMIC                      COORDINATES (BOHR)
           CHARGE         X                   Y                   Z
 C           6.0    -2.3110781912       -1.3617932385        0.5125314824
 C           6.0     0.0169508421        0.2028242903       -0.0164217188
 N           7.0     0.1061270115        2.6344858967       -0.0933524638
 O           8.0     2.1562529410       -1.1344214077       -0.4088422174
 H           1.0    -2.0796434495       -2.3376855331        2.3203945403
 H           1.0    -2.5632999188       -2.7543134216       -0.9953186777
 H           1.0    -3.9917626902       -0.1621006952        0.6005171244
 H           1.0    -1.6386758903        3.3983320382        0.2481588167
 H           1.0     1.8935621315       -2.9450056710       -0.2951185075

          INTERNUCLEAR DISTANCES (ANGS.)
          ------------------------------

                1 C          2 C          3 N          4 O          5 H     

   1 C       0.0000000    1.5104779 *  2.4922071 *  2.4167633 *  1.0940407 *
   2 C       1.5104779 *  0.0000000    1.2882884 *  1.3510957 *  2.1371561 *
   3 N       2.4922071 *  1.2882884 *  0.0000000    2.2765210 *  3.1452123  
   4 O       2.4167633 *  1.3510957 *  2.2765210 *  0.0000000    2.7414955 *
   5 H       1.0940407 *  2.1371561 *  3.1452123    2.7414955 *  0.0000000  
   6 H       1.0943023 *  2.1404285 *  3.2179260    2.6586712 *  1.7868222 *
   7 H       1.0937089 *  2.1549647 *  2.6509114 *  3.3368522    1.7825772 *
   8 H       2.5478008 *  1.9096168 *  1.0239857 *  3.1475590    3.2358014  
   9 H       2.4156150 *  1.9449100 *  3.1021867    0.9700203 *  2.5376302 *

                6 H          7 H          8 H          9 H     

   1 C       1.0943023 *  1.0937089 *  2.5478008 *  2.4156150 *
   2 C       2.1404285 *  2.1549647 *  1.9096168 *  1.9449100 *
   3 N       3.2179260    2.6509114 *  1.0239857 *  3.1021867  
   4 O       2.6586712 *  3.3368522    3.1475590    0.9700203 *
   5 H       1.7868222 *  1.7825772 *  3.2358014    2.5376302 *
   6 H       0.0000000    1.7793867 *  3.3575123    2.3895305 *
   7 H       1.7793867 *  0.0000000    2.2660810 *  3.4774544  
   8 H       3.3575123    2.2660810 *  0.0000000    3.8528243  
   9 H       2.3895305 *  3.4774544    3.8528243    0.0000000  

  * ... LESS THAN  3.000


     ATOMIC BASIS SET
     ----------------
 THE CONTRACTED PRIMITIVE FUNCTIONS HAVE BEEN UNNORMALIZED
 THE CONTRACTED BASIS FUNCTIONS ARE NOW NORMALIZED TO UNITY

  SHELL TYPE  PRIMITIVE        EXPONENT          CONTRACTION COEFFICIENT(S)

 C         

      1   S       1           172.2560000    0.061766907377
      1   S       2            25.9109000    0.358794042852
      1   S       3             5.5333500    0.700713083689

      2   L       4             3.6649800   -0.395895162119    0.236459946619
      2   L       5             0.7705450    1.215834355681    0.860618805716

      3   L       6             0.1958570    1.000000000000    1.000000000000

 C         

      4   S       7           172.2560000    0.061766907377
      4   S       8            25.9109000    0.358794042852
      4   S       9             5.5333500    0.700713083689

      5   L      10             3.6649800   -0.395895162119    0.236459946619
      5   L      11             0.7705450    1.215834355681    0.860618805716

      6   L      12             0.1958570    1.000000000000    1.000000000000

 N         

      7   S      13           242.7660000    0.059865700508
      7   S      14            36.4851000    0.352955002994
      7   S      15             7.8144900    0.706513005993

      8   L      16             5.4252200   -0.413300077430    0.237972016222
      8   L      17             1.1491500    1.224417266851    0.858953058551

      9   L      18             0.2832050    1.000000000000    1.000000000000

 O         

     10   S      19           322.0370000    0.059239393389
     10   S      20            48.4308000    0.351499960776
     10   S      21            10.4206000    0.707657921031

     11   L      22             7.4029400   -0.404453583190    0.244586106967
     11   L      23             1.5762000    1.221561761397    0.853955373466

     12   L      24             0.3736840    1.000000000000    1.000000000000

 H         

     13   S      25             5.4471780    0.156284978695
     13   S      26             0.8245472    0.904690876670

     14   S      27             0.1831916    1.000000000000

 H         

     15   S      28             5.4471780    0.156284978695
     15   S      29             0.8245472    0.904690876670

     16   S      30             0.1831916    1.000000000000

 H         

     17   S      31             5.4471780    0.156284978695
     17   S      32             0.8245472    0.904690876670

     18   S      33             0.1831916    1.000000000000

 H         

     19   S      34             5.4471780    0.156284978695
     19   S      35             0.8245472    0.904690876670

     20   S      36             0.1831916    1.000000000000

 H         

     21   S      37             5.4471780    0.156284978695
     21   S      38             0.8245472    0.904690876670

     22   S      39             0.1831916    1.000000000000

 TOTAL NUMBER OF BASIS SET SHELLS             =   22
 NUMBER OF CARTESIAN GAUSSIAN BASIS FUNCTIONS =   46
 NUMBER OF ELECTRONS                          =   32
 CHARGE OF MOLECULE                           =    0
 SPIN MULTIPLICITY                            =    1
 NUMBER OF OCCUPIED ORBITALS (ALPHA)          =   16
 NUMBER OF OCCUPIED ORBITALS (BETA )          =   16
 TOTAL NUMBER OF ATOMS                        =    9
 THE NUCLEAR REPULSION ENERGY IS      120.9308711033

 SELECTED MURRAY-HANDY-LAMING RADIAL GRID

 LEGACY BECKE'S FUZZY CELL METHOD

 SELECTED ORIGINAL BECKE'S PARTITION FUNCTION

     LEBEDEV GRID-BASED DFT OPTIONS
     ------------------------------
     DFTTYP=B3LYP   
     NRAD  =      96     NLEB  =     590
     NRAD0 =      24     NLEB0 =     110
     SWOFF =    5.00E-03 (PURE SCF -> DFT)
     SWITCH=    3.00E-04 (COARSE -> TIGHT GRID)
     THRESH=    0.00E+00 GTHRE=    1.00E+00

 GRIMME'S EMPIRICAL DISPERSION CORRECTION= F

     $CONTRL OPTIONS
     ---------------
 SCFTYP=RHF          RUNTYP=OPTIMIZE     EXETYP=RUN     
 MPLEVL=       0     CITYP =NONE         CCTYP =NONE         VBTYP =NONE    
 DFTTYP=B3LYP        TDDFT =NONE    
 MULT  =       1     ICHARG=       0     NZVAR =       0     COORD =UNIQUE  
 PP    =NONE         RELWFN=NONE         LOCAL =NONE         NUMGRD=       F
 ISPHER=      -1     NOSYM =       0     MAXIT =     200     UNITS =ANGS    
 PLTORB=       F     MOLPLT=       F     AIMPAC=       F     FRIEND=        
 NPRINT=       7     IREST =       0     GEOM  =INPUT   
 NORMF =       0     NORMP =       0     ITOL  =      20     ICUT  =       9
 INTTYP=BEST         GRDTYP=BEST         QMTTOL= 1.0E-06

     $SYSTEM OPTIONS
     ---------------
  REPLICATED MEMORY=   250000000 WORDS (ON EVERY NODE).
 DISTRIBUTED MEMDDI=           0 MILLION WORDS IN AGGREGATE,
 MEMDDI DISTRIBUTED OVER   1 PROCESSORS IS           0 WORDS/PROCESSOR.
 TOTAL MEMORY REQUESTED ON EACH PROCESSOR=   250000000 WORDS.
 TIMLIM=        2879.00 MINUTES, OR       2.0 DAYS.
 PARALL= F  BALTYP=  DLB     KDIAG=    0  COREFL= F
 MXSEQ2=     300 MXSEQ3=     150  mem10=         0

          ----------------
          PROPERTIES INPUT
          ----------------

     MOMENTS            FIELD           POTENTIAL          DENSITY
 IEMOM =       1   IEFLD =       0   IEPOT =       0   IEDEN =       0
 WHERE =COMASS     WHERE =NUCLEI     WHERE =NUCLEI     WHERE =NUCLEI  
 OUTPUT=BOTH       OUTPUT=BOTH       OUTPUT=BOTH       OUTPUT=BOTH    
 IEMINT=       0   IEFINT=       0                     IEDINT=       0
                                                       MORB  =       0
          EXTRAPOLATION IN EFFECT
          DIIS IN EFFECT
 ORBITAL PRINTING OPTION: NPREO=     1    46     2     1

     -------------------------------
     INTEGRAL TRANSFORMATION OPTIONS
     -------------------------------
     NWORD  =            0
     CUTOFF = 1.0E-09     MPTRAN =       0
     DIRTRF =       T     AOINTS =DUP     

          ----------------------
          INTEGRAL INPUT OPTIONS
          ----------------------
 NOPK  =       1 NORDER=       0 SCHWRZ=       T

     ------------------------------------------
     THE POINT GROUP IS C1 , NAXIS= 0, ORDER= 1
     ------------------------------------------

     DIMENSIONS OF THE SYMMETRY SUBSPACES ARE
 A   =   46

 ..... DONE SETTING UP THE RUN .....
 STEP CPU TIME =     0.01 TOTAL CPU TIME =          0.0 (      0.0 MIN)
 TOTAL WALL CLOCK TIME=          0.0 SECONDS, CPU UTILIZATION IS    50.00%


          -----------------------------
          STATIONARY POINT LOCATION RUN
          -----------------------------

 OBTAINING INITIAL HESSIAN, HESS=GUESS   
 CARTESIAN COORDINATE OPTIMIZATION USING BADGER'S RULE FORCE CONSTANT GUESS

          PARAMETERS CONTROLLING GEOMETRY SEARCH ARE
          METHOD =QA                  UPHESS =BFGS    
          NNEG   =         0          NFRZ   =         0
          NSTEP  =       999          IFOLOW =         1
          HESS   =GUESS               RESTAR =         F
          IHREP  =         0          HSSEND =         T
          NPRT   =         0          NPUN   =         0
          OPTTOL = 5.000E-04          RMIN   = 1.500E-03
          RMAX   = 1.000E-01          RLIM   = 7.000E-02
          DXMAX  = 3.000E-01          PURIFY =         F
          MOVIE  =         F          TRUPD  =         T
          TRMAX  = 5.000E-01          TRMIN  = 5.000E-02
          ITBMAT =         5          STPT   =         F
          STSTEP = 1.000E-02          PROJCT=          T

 BEGINNING GEOMETRY SEARCH POINT NSERCH=   0 ...

 COORDINATES OF ALL ATOMS ARE (ANGS)
   ATOM   CHARGE       X              Y              Z
 ------------------------------------------------------------
 C           6.0  -1.2229700000  -0.7206300000   0.2712200000
 C           6.0   0.0089700000   0.1073300000  -0.0086900000
 N           7.0   0.0561600000   1.3941100000  -0.0494000000
 O           8.0   1.1410400000  -0.6003100000  -0.2163500000
 H           1.0  -1.1005000000  -1.2370500000   1.2279000000
 H           1.0  -1.3564400000  -1.4575200000  -0.5267000000
 H           1.0  -2.1123500000  -0.0857800000   0.3177800000
 H           1.0  -0.8671500000   1.7983200000   0.1313200000
 H           1.0   1.0020300000  -1.5584300000  -0.1561700000

          ********************
          1 ELECTRON INTEGRALS
          ********************
 ...... END OF ONE-ELECTRON INTEGRALS ......
 STEP CPU TIME =     0.00 TOTAL CPU TIME =          0.0 (      0.0 MIN)
 TOTAL WALL CLOCK TIME=          0.0 SECONDS, CPU UTILIZATION IS    25.00%

          -------------
          GUESS OPTIONS
          -------------
          GUESS =HUCKEL            NORB  =       0          NORDER=       0
          MIX   =       F          PRTMO =       F          PUNMO =       F
          TOLZ  = 1.0E-08          TOLE  = 1.0E-05
          SYMDEN=       F          PURIFY=       F

 INITIAL GUESS ORBITALS GENERATED BY HUCKEL   ROUTINE.
 HUCKEL GUESS REQUIRES     24478 WORDS.

 SYMMETRIES FOR INITIAL GUESS ORBITALS FOLLOW.   BOTH SET(S).
    16 ORBITALS ARE OCCUPIED (    4 CORE ORBITALS).
     5=A        6=A        7=A        8=A        9=A       10=A       11=A   
    12=A       13=A       14=A       15=A       16=A       17=A       18=A   
    19=A       20=A       21=A       22=A       23=A       24=A       25=A   
    26=A   
 ...... END OF INITIAL ORBITAL SELECTION ......
 STEP CPU TIME =     0.01 TOTAL CPU TIME =          0.0 (      0.0 MIN)
 TOTAL WALL CLOCK TIME=          0.0 SECONDS, CPU UTILIZATION IS    40.00%

                    ----------------------
                    AO INTEGRAL TECHNOLOGY
                    ----------------------
     S,P,L SHELL ROTATED AXIS INTEGRALS, REPROGRAMMED BY
        KAZUYA ISHIMURA (IMS) AND JOSE SIERRA (SYNSTAR).
     S,P,D,L SHELL ROTATED AXIS INTEGRALS PROGRAMMED BY
        KAZUYA ISHIMURA (INSTITUTE FOR MOLECULAR SCIENCE).
     S,P,D,F,G SHELL TO TOTAL QUARTET ANGULAR MOMENTUM SUM 5,
        ERIC PROGRAM BY GRAHAM FLETCHER (ELORET AND NASA ADVANCED
        SUPERCOMPUTING DIVISION, AMES RESEARCH CENTER).
     S,P,D,F,G,L SHELL GENERAL RYS QUADRATURE PROGRAMMED BY
        MICHEL DUPUIS (PACIFIC NORTHWEST NATIONAL LABORATORY).

          --------------------
          2 ELECTRON INTEGRALS
          --------------------

 DIRECT SCF METHOD SKIPS INTEGRAL STORAGE ON DISK.
 DIRECT TRANSFORMATION SKIPS AO INTEGRAL STORAGE ON DISK.
  ...... END OF TWO-ELECTRON INTEGRALS .....
 STEP CPU TIME =     0.00 TOTAL CPU TIME =          0.0 (      0.0 MIN)
 TOTAL WALL CLOCK TIME=          0.1 SECONDS, CPU UTILIZATION IS    33.33%

          --------------------------
             R-B3LYP SCF CALCULATION
          --------------------------

     NUCLEAR ENERGY =       120.9308711033
     MAXIT =  200     NPUNCH=    2
     EXTRAP=T  DAMP=F  SHIFT=F  RSTRCT=F  DIIS=T  DEM=F  SOSCF=F
         DENSITY MATRIX CONVERGENCE THRESHOLD=  2.00E-05
     COARSE -> FINE DFT GRID SWITCH THRESHOLD=  3.00E-04 (SWITCH IN $DFT)
                   HF -> DFT SWITCH THRESHOLD=  5.00E-03 (SWOFF IN $DFT)
     MEMORY REQUIRED FOR RHF ITERS=    658753 WORDS.

 DIRECT SCF CALCULATION, SCHWRZ=T   FDIFF=T,  DIRTHR=  0.00E+00 NITDIR=10
 SCHWARZ INEQUALITY OVERHEAD:      1078 INTEGRALS, T=        0.00

 DFT CODE IS SWITCHING FROM THE FINE GRID NRAD= 96,  NLEB=  590
                      TO THE COARSE GRID NRAD0= 24, NLEB0=  110

     EXCHANGE FUNCTIONAL   =B88&HFX   
     CORRELATION FUNCTIONAL=LYP88&VWN5
     DFT THRESHOLD         =.785E-08
     GRID CHANGE THRESHOLD =.300E-03
 FOR AN EULER-MACLAURIN QUADRATURE USING  96 RADIAL POINTS:
 SMALLEST GAUSSIAN PRIMITIVE EXPONENT=        0.1831915800 OF TYPE -S-
 ON ATOM NUMBER   5 HAS RADIAL NORMALIZATION=  1.000000
  LARGEST GAUSSIAN PRIMITIVE EXPONENT=      322.0370000000 OF TYPE -S-
 ON ATOM NUMBER   4 HAS RADIAL NORMALIZATION=  1.000000
 DFT IS SWITCHED OFF, PERFORMING PURE SCF UNTIL SWOFF THRESHOLD IS REACHED.

                                                                                   NONZERO     BLOCKS
 ITER EX DEM     TOTAL ENERGY        E CHANGE  DENSITY CHANGE    DIIS ERROR      INTEGRALS    SKIPPED
   1  0  0     -206.1590669171  -206.1590669171   0.690808131   0.595473251         539271       4686
          * * *   INITIATING DIIS PROCEDURE   * * *
   2  1  0     -206.6882285856    -0.5291616685   0.191606866   0.162888377         538699       5054
   3  2  0     -206.7341316851    -0.0459030995   0.066275835   0.119549404         537246       5518
   4  3  0     -206.7659604750    -0.0318287899   0.037647973   0.011750514         534949       5998
   5  4  0     -206.7668652280    -0.0009047529   0.006073715   0.003287664         530483       6575
   6  5  0     -206.7669197247    -0.0000544967   0.002189849   0.001528150         523706       7229
 CONVERGED TO SWOFF, SO DFT CALCULATION IS NOW SWITCHED ON.
          * * *   INITIATING DIIS PROCEDURE   * * *
   7  6  0     -207.8724108874    -1.1054911627   0.102997712   0.076423031         539430       4575
   8  7  0     -207.8873798744    -0.0149689870   0.062499753   0.031624921         536856       5654
   9  8  0     -207.8887783262    -0.0013984518   0.033194068   0.039490533         534372       6018
  10  9  0     -207.8918076743    -0.0030293481   0.008862125   0.013327838         532037       6396
  11 10  0     -207.8921205807    -0.0003129064   0.001819349   0.003986776         526897       6978
  12 11  0     -207.8921402886    -0.0000197079   0.000438493   0.000795162         518610       7662
  13 12  0     -207.8921414914    -0.0000012028   0.000050327   0.000105406         510893       8248
 DFT CODE IS SWITCHING BACK TO THE FINE GRID
          * * *   INITIATING DIIS PROCEDURE   * * *
  14 13  0     -207.8938668988    -0.0017254073   0.001404395   0.001743173         539463       4535
  15 14  0     -207.8938749650    -0.0000080662   0.000789664   0.000790241         517825       7734
  16 15  0     -207.8938751006    -0.0000001357   0.000363678   0.000891915         513071       8189
  17 16  0     -207.8938761999    -0.0000010992   0.000111059   0.000131946         508023       8586
  18 17  0     -207.8938762287    -0.0000000289   0.000044215   0.000073489         495854       9623
  19 18  0     -207.8938762379    -0.0000000092   0.000017446   0.000013579         489159      10081
  20 19  0     -207.8938762385    -0.0000000005   0.000002455   0.000001624         477049      11021

          -----------------
          DENSITY CONVERGED
          -----------------
     TIME TO FORM FOCK OPERATORS=       6.0 SECONDS (       0.3 SEC/ITER)
     FOCK TIME ON FIRST ITERATION=       0.0, LAST ITERATION=       0.8
     TIME TO SOLVE SCF EQUATIONS=       0.0 SECONDS (       0.0 SEC/ITER)

 FINAL R-B3LYP ENERGY IS     -207.8938762385 AFTER  20 ITERATIONS
 DFT EXCHANGE + CORRELATION ENERGY =       -22.6454523979
 TOTAL ELECTRON NUMBER             =        32.0000023296

          ------------
          EIGENVECTORS
          ------------

                      1          2          3          4          5
                  -19.0618   -14.2056   -10.2150   -10.1385    -1.0730
                     A          A          A          A          A   
    1  C  1  S    0.000010  -0.000021  -0.006818   0.986322  -0.019725
    2  C  1  S   -0.000366  -0.000406  -0.004099   0.112635   0.018289
    3  C  1  X   -0.000203  -0.000424  -0.000715   0.000030   0.020154
    4  C  1  Y   -0.000353   0.000036  -0.000724  -0.000207   0.006957
    5  C  1  Z    0.000042   0.000052   0.000229   0.000015  -0.004453
    6  C  1  S    0.001409   0.004394   0.026097  -0.095216   0.023176
    7  C  1  X   -0.004013   0.006327   0.013478  -0.006435   0.014661
    8  C  1  Y    0.005507  -0.006344   0.010689  -0.004111  -0.025303
    9  C  1  Z    0.000675  -0.000978  -0.003424   0.001444  -0.001043
   10  C  2  S   -0.000396  -0.000022   0.985243   0.006186  -0.095190
   11  C  2  S   -0.000819  -0.001443   0.104033  -0.002404   0.108012
   12  C  2  X    0.001279  -0.000245  -0.000446   0.000500   0.080552
   13  C  2  Y   -0.000973  -0.000039  -0.001095   0.000299  -0.047224
   14  C  2  Z   -0.000234   0.000051   0.000154  -0.000093  -0.014595
   15  C  2  S    0.014443   0.031513  -0.057310   0.023911   0.097967
   16  C  2  X    0.016533   0.000255   0.019061  -0.015321  -0.045261
   17  C  2  Y   -0.013479   0.034274   0.011322  -0.008882   0.002004
   18  C  2  Z   -0.002926  -0.000921  -0.004283   0.003338   0.008968
   19  N  3  S   -0.000132   0.985083   0.000349   0.000010  -0.030181
   20  N  3  S   -0.000824   0.110694  -0.000485  -0.000421   0.027434
   21  N  3  X    0.000491  -0.003027   0.000468  -0.000097  -0.002561
   22  N  3  Y    0.000264  -0.003983   0.001940   0.000477  -0.031689
   23  N  3  Z   -0.000095   0.000704  -0.000149  -0.000013   0.001339
   24  N  3  S    0.004411  -0.080868   0.001722   0.000570   0.074466
   25  N  3  X   -0.005183   0.007060  -0.004337   0.002867   0.011454
   26  N  3  Y   -0.001007   0.021855   0.001492  -0.000562  -0.025069
   27  N  3  Z    0.001028  -0.001947   0.000888  -0.000508  -0.001584
   28  O  4  S    0.982631  -0.000026   0.000218  -0.000015  -0.214126
   29  O  4  S    0.106559  -0.000616   0.001243  -0.000447   0.198389
   30  O  4  X   -0.003817   0.000650   0.000012   0.000368  -0.104471
   31  O  4  Y   -0.000665   0.000462   0.000625  -0.000344  -0.028649
   32  O  4  Z    0.000795  -0.000134  -0.000028  -0.000084   0.022269
   33  O  4  S   -0.056697   0.002459   0.000177   0.000463   0.669497
   34  O  4  X    0.012055  -0.003129   0.001083   0.000027  -0.120279
   35  O  4  Y   -0.001394  -0.004202  -0.004764   0.002049  -0.015395
   36  O  4  Z   -0.002403   0.000710  -0.000046  -0.000003   0.025058
   37  H  5  S    0.000642  -0.000390  -0.001739   0.000040   0.004877
   38  H  5  S   -0.000249  -0.001360   0.002968   0.015999  -0.005594
   39  H  6  S    0.000799  -0.000688  -0.001671   0.000063   0.005000
   40  H  6  S    0.000116  -0.001446   0.002573   0.015927  -0.005351
   41  H  7  S   -0.001143   0.001122  -0.001605  -0.000049   0.007400
   42  H  7  S   -0.001790   0.002200   0.001043   0.015914   0.006737
   43  H  8  S   -0.001547   0.002675  -0.001170   0.000265   0.011840
   44  H  8  S    0.001068   0.007133   0.001357   0.000635  -0.004635
   45  H  9  S    0.003139  -0.001457  -0.001163  -0.000101   0.104526
   46  H  9  S    0.005443   0.001762   0.001370   0.001793   0.016515

                      6          7          8          9         10
                   -0.8871    -0.7436    -0.6143    -0.4925    -0.4691
                     A          A          A          A          A   
    1  C  1  S   -0.040664  -0.199391   0.027470   0.042524   0.001604
    2  C  1  S    0.042195   0.190805  -0.019663  -0.033909  -0.003586
    3  C  1  X    0.017274   0.024656   0.054344   0.266059   0.054620
    4  C  1  Y    0.028534   0.003325   0.009824   0.137458  -0.116436
    5  C  1  Z   -0.004327  -0.004799  -0.010600  -0.058376  -0.016160
    6  C  1  S    0.062588   0.581827  -0.136156  -0.226919  -0.000485
    7  C  1  X   -0.029736   0.025417  -0.006776   0.152802   0.057558
    8  C  1  Y    0.020365  -0.007336  -0.019618   0.057646  -0.082319
    9  C  1  Z    0.006127  -0.003155   0.000592  -0.030590  -0.013310
   10  C  2  S   -0.115425  -0.036688  -0.105632  -0.083395   0.045853
   11  C  2  S    0.131937   0.042883   0.125298   0.089657  -0.060408
   12  C  2  X   -0.043132  -0.111745   0.157854  -0.211420   0.091802
   13  C  2  Y    0.167232  -0.132447  -0.061213  -0.148051  -0.267888
   14  C  2  Z    0.004877   0.026784  -0.030159   0.048415  -0.016249
   15  C  2  S    0.151730   0.061871   0.319754   0.261425  -0.159960
   16  C  2  X   -0.036125  -0.025126   0.008828  -0.190183   0.048867
   17  C  2  Y   -0.062022  -0.029389  -0.047351  -0.156488  -0.131770
   18  C  2  Z    0.009263   0.006115   0.000394   0.044041  -0.010989
   19  N  3  S   -0.183304   0.069374   0.059176   0.032658  -0.038692
   20  N  3  S    0.168717  -0.067524  -0.053251  -0.038739   0.026162
   21  N  3  X   -0.075902   0.012882   0.115213  -0.066175  -0.149538
   22  N  3  Y   -0.117435   0.023810  -0.092269   0.003557   0.300443
   23  N  3  Z    0.018449  -0.003081  -0.021249   0.014031   0.021928
   24  N  3  S    0.559321  -0.211311  -0.210372  -0.070374   0.180665
   25  N  3  X   -0.066971   0.017264   0.098177  -0.033473  -0.109753
   26  N  3  Y   -0.114392   0.020624  -0.041899  -0.023057   0.186623
   27  N  3  Z    0.016387  -0.004121  -0.019257   0.007681   0.017171
   28  O  4  S    0.062977   0.034811   0.026890   0.054520  -0.000408
   29  O  4  S   -0.061310  -0.033912  -0.026090  -0.054754  -0.000606
   30  O  4  X    0.004654  -0.023777  -0.145740  -0.097158  -0.144876
   31  O  4  Y    0.057741  -0.003732   0.308496  -0.153905   0.137711
   32  O  4  Z   -0.002684   0.004922   0.019618   0.025231   0.020492
   33  O  4  S   -0.214596  -0.122976  -0.099129  -0.212978   0.015538
   34  O  4  X    0.019941  -0.016313  -0.116859  -0.092372  -0.142888
   35  O  4  Y    0.059101  -0.004033   0.258773  -0.122289   0.122892
   36  O  4  Z   -0.005831   0.003277   0.015221   0.023219   0.020697
   37  H  5  S    0.016575   0.110453  -0.020551  -0.086539   0.025816
   38  H  5  S   -0.003837   0.007031  -0.014766  -0.068156   0.021490
   39  H  6  S    0.016218   0.110908  -0.020635  -0.083918   0.049111
   40  H  6  S   -0.002521   0.008829  -0.017422  -0.063394   0.042187
   41  H  7  S    0.019342   0.104483  -0.036580  -0.118123  -0.066803
   42  H  7  S   -0.007986   0.013548  -0.029549  -0.079054  -0.035981
   43  H  8  S    0.095903  -0.038703  -0.120173   0.009836   0.219675
   44  H  8  S    0.017222  -0.008996  -0.074010   0.006343   0.196352
   45  H  9  S   -0.053337  -0.012937  -0.198917   0.075232  -0.092148
   46  H  9  S   -0.025930  -0.007597  -0.138076   0.045691  -0.085755

                     11         12         13         14         15
                   -0.4572    -0.4338    -0.3695    -0.3403    -0.2455
                     A          A          A          A          A   
    1  C  1  S   -0.000254  -0.001622   0.000223  -0.020250   0.001041
    2  C  1  S   -0.000226   0.004390  -0.000484   0.017442  -0.000399
    3  C  1  X    0.066735  -0.135497  -0.044590   0.194338  -0.011132
    4  C  1  Y    0.009039   0.320456  -0.006196  -0.012501  -0.002335
    5  C  1  Z    0.321361   0.015315  -0.198170  -0.045018  -0.034791
    6  C  1  S    0.003746   0.002893  -0.000991   0.158171  -0.010832
    7  C  1  X    0.051382  -0.119224  -0.039413   0.153085  -0.010150
    8  C  1  Y    0.004219   0.255713  -0.010377   0.036523   0.012614
    9  C  1  Z    0.237853   0.012784  -0.184260  -0.042672   0.020490
   10  C  2  S    0.002148   0.002093   0.000022   0.001855  -0.000301
   11  C  2  S   -0.003022  -0.006285   0.000141  -0.008656   0.000630
   12  C  2  X    0.041859  -0.048787   0.046799  -0.182522   0.041431
   13  C  2  Y   -0.001567  -0.099907   0.005998  -0.002360   0.009747
   14  C  2  Z    0.194352   0.010637   0.211183   0.040362   0.197535
   15  C  2  S   -0.004629   0.018533  -0.001158   0.058793  -0.002082
   16  C  2  X    0.035329  -0.041644   0.047116  -0.011093   0.033048
   17  C  2  Y    0.004432  -0.004238   0.006376   0.114786  -0.003143
   18  C  2  Z    0.163030   0.007492   0.237324   0.003911   0.172611
   19  N  3  S   -0.001079   0.035175  -0.000099   0.032942   0.002379
   20  N  3  S    0.001131  -0.031371   0.000105  -0.021481  -0.002530
   21  N  3  X    0.012712  -0.093825   0.028747  -0.081802   0.064331
   22  N  3  Y    0.011185   0.098909   0.002069   0.014736   0.001878
   23  N  3  Z    0.084742   0.015755   0.133105   0.019422   0.355370
   24  N  3  S    0.002483  -0.162692   0.000326  -0.212911  -0.005441
   25  N  3  X    0.009546  -0.062087   0.024397  -0.071397   0.074452
   26  N  3  Y    0.009317   0.074859   0.001228   0.050968  -0.000799
   27  N  3  Z    0.064200   0.009580   0.110340   0.016227   0.405066
   28  O  4  S   -0.000948  -0.035295   0.001571  -0.076474  -0.000189
   29  O  4  S    0.000886   0.028413  -0.001523   0.070466   0.000218
   30  O  4  X    0.027978   0.008205   0.065075   0.376004  -0.068916
   31  O  4  Y    0.008608   0.097880   0.009635   0.179516  -0.009985
   32  O  4  Z    0.146685  -0.005398   0.355006  -0.076125  -0.325020
   33  O  4  S    0.004535   0.173482  -0.006160   0.321468   0.000575
   34  O  4  X    0.028125   0.001330   0.068098   0.409599  -0.082687
   35  O  4  Y    0.007471   0.091359   0.011173   0.159176  -0.011402
   36  O  4  Z    0.146145  -0.003613   0.374978  -0.082346  -0.392860
   37  H  5  S    0.188697  -0.106250  -0.140994   0.010261  -0.041897
   38  H  5  S    0.164590  -0.095919  -0.126246   0.000240  -0.099118
   39  H  6  S   -0.165711  -0.147838   0.123407   0.033611   0.038218
   40  H  6  S   -0.149151  -0.135764   0.104798   0.019241   0.108574
   41  H  7  S   -0.022836   0.211240   0.018893  -0.121339   0.005296
   42  H  7  S   -0.017323   0.181564   0.020539  -0.162605  -0.002527
   43  H  8  S    0.006652   0.080654  -0.000685   0.034188   0.002271
   44  H  8  S    0.004926   0.090989   0.000137   0.021976   0.003636
   45  H  9  S   -0.002769  -0.069600   0.001686  -0.124822  -0.000013
   46  H  9  S   -0.003678  -0.070938   0.002716  -0.088933  -0.001013

                     16         17         18         19         20
                   -0.2324     0.0412     0.0693     0.1428     0.1481
                     A          A          A          A          A   
    1  C  1  S   -0.035194   0.002570   0.069464  -0.112915  -0.075819
    2  C  1  S    0.021754  -0.001026  -0.041642   0.047366   0.034201
    3  C  1  X    0.098386   0.015279   0.088624   0.077187  -0.165442
    4  C  1  Y    0.125712   0.004906   0.046267  -0.246660   0.093076
    5  C  1  Z   -0.027319   0.032034  -0.009847   0.003205   0.055814
    6  C  1  S    0.318464  -0.030345  -0.768192   1.510236   1.055776
    7  C  1  X    0.138254   0.093651   0.456569   0.365426  -0.434555
    8  C  1  Y    0.151805   0.012098   0.112079  -0.866883   0.180381
    9  C  1  Z   -0.042965   0.261761  -0.065195   0.000517   0.175297
   10  C  2  S    0.019370   0.001379  -0.010335   0.007248   0.002154
   11  C  2  S   -0.029133   0.000590   0.010484   0.033673   0.011332
   12  C  2  X   -0.044752   0.091774   0.117029   0.094812   0.005224
   13  C  2  Y   -0.146739   0.011831  -0.004692  -0.011907  -0.018651
   14  C  2  Z    0.017712   0.422612  -0.057267  -0.027990  -0.012533
   15  C  2  S   -0.024605  -0.025601  -0.038825  -0.293302  -0.020214
   16  C  2  X    0.185990   0.115793   0.178956   0.170214  -0.014052
   17  C  2  Y   -0.003112   0.028804   0.193949  -0.001049   0.160763
   18  C  2  Z   -0.032046   0.521351  -0.092460  -0.054936  -0.031222
   19  N  3  S   -0.095749   0.002410   0.052791   0.011635  -0.035454
   20  N  3  S    0.081530  -0.001088  -0.025810  -0.004015   0.016188
   21  N  3  X    0.353131  -0.062698   0.062358   0.014793  -0.171853
   22  N  3  Y    0.228425  -0.010306  -0.011774  -0.092339   0.089775
   23  N  3  Z   -0.067513  -0.336387   0.012289   0.009895   0.035399
   24  N  3  S    0.399463  -0.024040  -0.503442  -0.103080   0.346921
   25  N  3  X    0.339181  -0.092205   0.163231   0.062011  -0.340355
   26  N  3  Y    0.287045  -0.017799  -0.018599  -0.201587   0.223753
   27  N  3  Z   -0.065066  -0.514140   0.007031   0.005461   0.075763
   28  O  4  S    0.012092   0.003947   0.082758   0.023510   0.044286
   29  O  4  S   -0.000161  -0.002837  -0.054623  -0.020416  -0.023700
   30  O  4  X    0.092521  -0.030883   0.091092   0.057191  -0.017782
   31  O  4  Y   -0.020125   0.007724   0.178635   0.008628   0.209657
   32  O  4  Z   -0.026397  -0.179209  -0.010448  -0.014755   0.005157
   33  O  4  S   -0.129664  -0.030207  -0.667008  -0.159090  -0.416808
   34  O  4  X    0.141074  -0.046984   0.115184   0.075923  -0.043913
   35  O  4  Y   -0.055073   0.016046   0.331725   0.022480   0.381930
   36  O  4  Z   -0.037000  -0.252170  -0.013711  -0.014698   0.006488
   37  H  5  S   -0.036864  -0.101544  -0.008389  -0.059564  -0.034747
   38  H  5  S   -0.073849  -0.418163   0.369195  -1.167665  -0.413080
   39  H  6  S   -0.043420   0.087308  -0.021219  -0.071702  -0.029001
   40  H  6  S   -0.089382   0.391709   0.360540  -1.299379  -0.151251
   41  H  7  S    0.023619   0.015679   0.056425   0.069467  -0.004451
   42  H  7  S   -0.028295   0.095266   0.654505   0.457149  -0.994986
   43  H  8  S   -0.114881   0.002341   0.066896   0.055119  -0.019278
   44  H  8  S   -0.114352   0.026872   0.466038   0.331418  -0.753580
   45  H  9  S    0.006227   0.005219   0.110814   0.040967   0.095197
   46  H  9  S    0.008475   0.050962   0.931057   0.115025   0.887626

                     21         22         23         24         25
                    0.1796     0.1915     0.2380     0.3513     0.4769
                     A          A          A          A          A   
    1  C  1  S    0.036256   0.085885   0.077210  -0.032544  -0.016937
    2  C  1  S   -0.014079  -0.033942  -0.024857   0.013788  -0.025247
    3  C  1  X   -0.033859   0.140512  -0.226195   0.004118   0.066859
    4  C  1  Y   -0.069787  -0.104968  -0.135434   0.119467  -0.170990
    5  C  1  Z   -0.334319   0.148407   0.066759   0.013289   0.018950
    6  C  1  S   -0.493250  -1.220172  -0.926922   0.530468   0.699270
    7  C  1  X   -0.146101   0.361406  -1.210820   0.262194   0.956810
    8  C  1  Y   -0.350563  -0.572613  -0.610773   0.900270  -0.018740
    9  C  1  Z   -1.189164   0.548722   0.309629  -0.052977  -0.188743
   10  C  2  S   -0.014606  -0.014998  -0.184275  -0.021570  -0.069835
   11  C  2  S    0.000046  -0.003141   0.093658   0.028062   0.003830
   12  C  2  X    0.006201  -0.113227  -0.069400   0.477367   0.185012
   13  C  2  Y   -0.051846  -0.108651  -0.205613  -0.123153   0.304943
   14  C  2  Z    0.156066  -0.048813   0.019923  -0.095041  -0.046230
   15  C  2  S    0.215895   0.262546   2.308820  -0.238814   1.175488
   16  C  2  X   -0.027220  -0.344431  -0.399347   1.470491   0.584963
   17  C  2  Y   -0.098987  -0.301851  -0.530121  -0.770063   2.288059
   18  C  2  Z    0.398071  -0.108992   0.095371  -0.284918  -0.179504
   19  N  3  S   -0.033315  -0.077739   0.058204  -0.025424   0.114231
   20  N  3  S    0.016409   0.035728  -0.039649  -0.004279  -0.046493
   21  N  3  X   -0.104041  -0.142876   0.045772  -0.154181  -0.122424
   22  N  3  Y    0.031507   0.055304   0.109620  -0.051084   0.320033
   23  N  3  Z   -0.046673   0.066364  -0.013882   0.030072   0.022501
   24  N  3  S    0.338249   0.808314  -0.531878   0.616405  -1.785816
   25  N  3  X   -0.223037  -0.312190   0.177245  -0.484503  -0.328678
   26  N  3  Y    0.073686   0.080266   0.284545  -0.243021   1.350775
   27  N  3  Z   -0.123353   0.145565  -0.044364   0.104867   0.035938
   28  O  4  S    0.008317  -0.009142   0.061314   0.078339   0.014770
   29  O  4  S   -0.004996   0.004669  -0.042656  -0.041616  -0.025327
   30  O  4  X    0.017854   0.061611   0.184473   0.204090  -0.042448
   31  O  4  Y    0.028537   0.037187  -0.097089  -0.211869  -0.117999
   32  O  4  Z   -0.095504   0.026040  -0.032654  -0.029482   0.010027
   33  O  4  S   -0.084125   0.064501  -0.544174  -0.832620   0.043521
   34  O  4  X    0.034084   0.078941   0.412114   0.509164  -0.127509
   35  O  4  Y    0.044788   0.059684  -0.182747  -0.522603  -0.312701
   36  O  4  Z   -0.129507   0.037884  -0.076767  -0.083530   0.033496
   37  H  5  S    0.034297  -0.055033  -0.057211   0.021771   0.082439
   38  H  5  S    1.269594  -0.527461  -0.144225   0.200421  -0.156873
   39  H  6  S   -0.076682  -0.023777  -0.048683   0.010104   0.101453
   40  H  6  S   -1.199841   0.511626  -0.030609   0.366025  -0.186485
   41  H  7  S    0.047338   0.101802  -0.045558   0.115431  -0.039333
   42  H  7  S    0.414610   1.320560  -0.312295  -0.348730   0.593648
   43  H  8  S   -0.034380  -0.094491   0.025384   0.129057  -0.062774
   44  H  8  S   -0.479985  -0.954698   0.299435  -0.289335  -0.638243
   45  H  9  S   -0.011525  -0.059976  -0.008612  -0.034136   0.118841
   46  H  9  S    0.101463  -0.049995   0.010300  -0.457328  -0.133812

                     26         27         28         29         30
                    0.6988     0.7132     0.7458     0.8180     0.8293
                     A          A          A          A          A   
    1  C  1  S    0.000799   0.036662  -0.005246   0.012945   0.000533
    2  C  1  S   -0.003906  -0.118923   0.024470  -0.022513  -0.002293
    3  C  1  X   -0.111079  -0.823394  -0.101055   0.317347  -0.076576
    4  C  1  Y   -0.034688  -0.504154   0.406506  -0.326402  -0.106164
    5  C  1  Z   -0.464345   0.203713   0.022073   0.015243  -0.712968
    6  C  1  S    0.011638   0.169024   0.090698   0.657573   0.047739
    7  C  1  X    0.202806   1.270139   0.258819  -0.386466   0.200162
    8  C  1  Y    0.061568   0.817977  -0.618075   1.122704   0.290999
    9  C  1  Z    0.801178  -0.313015  -0.049640  -0.116237   1.638350
   10  C  2  S   -0.001265  -0.008159  -0.009740   0.024469   0.000659
   11  C  2  S    0.004567  -0.027687  -0.032019  -0.233800  -0.015955
   12  C  2  X   -0.148701  -0.258064  -0.455169  -0.791058   0.052836
   13  C  2  Y   -0.030084  -0.058234   0.778989  -0.195654   0.072982
   14  C  2  Z   -0.765752   0.074462   0.046699   0.091876   0.652957
   15  C  2  S   -0.027985  -0.881363   0.558138  -0.049387  -0.008757
   16  C  2  X    0.136675   0.554171   0.677111   1.830267  -0.009563
   17  C  2  Y    0.039055   0.071227  -0.433949  -0.184308  -0.235630
   18  C  2  Z    0.596142  -0.132684  -0.093447  -0.236273  -1.238877
   19  N  3  S   -0.001193  -0.014690   0.053817  -0.001304  -0.001214
   20  N  3  S   -0.000283  -0.018620  -0.036680  -0.023610  -0.004168
   21  N  3  X   -0.016959   0.066747  -0.048313  -0.068902   0.017816
   22  N  3  Y    0.007198   0.023863   0.011535  -0.064229   0.020207
   23  N  3  Z   -0.071131  -0.011557   0.009167  -0.007085   0.129464
   24  N  3  S    0.003227   0.202766  -0.251661   0.128508   0.105505
   25  N  3  X   -0.023684  -0.159344  -0.073010  -0.235960  -0.013925
   26  N  3  Y   -0.001138  -0.112076   0.412141  -0.185837  -0.028063
   27  N  3  Z   -0.053238   0.036420  -0.001554   0.039046   0.177385
   28  O  4  S   -0.000642  -0.007054  -0.010691   0.037124   0.004075
   29  O  4  S   -0.000027  -0.004872   0.042298  -0.007126   0.002517
   30  O  4  X   -0.004709   0.037815  -0.088233  -0.198004   0.001852
   31  O  4  Y   -0.010397   0.017302  -0.005951   0.052324  -0.000661
   32  O  4  Z   -0.045718  -0.005694   0.014797   0.030450   0.131214
   33  O  4  S    0.006139  -0.011744  -0.300726  -0.743003  -0.127701
   34  O  4  X   -0.017923  -0.040379   0.051562   0.173751   0.065549
   35  O  4  Y   -0.012416  -0.088603  -0.115692  -0.157030  -0.023095
   36  O  4  Z   -0.073895   0.012946  -0.009792  -0.046359   0.114859
   37  H  5  S   -0.398454   0.160252  -0.171275   0.138981  -0.258982
   38  H  5  S   -0.062772   0.158436  -0.027803   0.210445  -0.390678
   39  H  6  S    0.367268   0.133241  -0.232015   0.120207   0.255893
   40  H  6  S    0.061478   0.156741  -0.040701   0.214473   0.440802
   41  H  7  S    0.051679   0.252253   0.379270  -0.103588   0.013708
   42  H  7  S    0.012284   0.104006   0.006030  -0.353029  -0.049883
   43  H  8  S   -0.018286  -0.166914   0.043922   0.281402  -0.008345
   44  H  8  S   -0.008200   0.049994   0.153632  -0.161641   0.000867
   45  H  9  S   -0.022353  -0.213353  -0.129445   0.316328  -0.012204
   46  H  9  S    0.003407   0.002717  -0.218117  -0.238326  -0.015748

                     31         32         33         34         35
                    0.8485     0.9524     1.0106     1.0165     1.0263
                     A          A          A          A          A   
    1  C  1  S    0.012592   0.060050  -0.000855  -0.017077   0.078913
    2  C  1  S   -0.055908  -0.097962  -0.027763   0.036852  -0.143163
    3  C  1  X   -0.303277  -0.082179  -0.018692   0.008142   0.447700
    4  C  1  Y    0.630963   0.169501  -0.047707   0.059471   0.077322
    5  C  1  Z   -0.016546  -0.046202   0.095676   0.674592   0.102703
    6  C  1  S    0.693390  -0.403012  -0.030070  -0.081251   0.179103
    7  C  1  X    1.341121   0.008241   0.180146  -0.049013  -0.682081
    8  C  1  Y   -1.330821  -0.213476  -0.121913  -0.036200   0.005425
    9  C  1  Z   -0.082204   0.103061  -0.124063  -0.760772  -0.135823
   10  C  2  S    0.012708  -0.052256  -0.025622   0.007761  -0.014440
   11  C  2  S   -0.056526   0.525353   0.114619  -0.095929   0.321197
   12  C  2  X   -0.160681   0.031687   0.045974   0.022288   0.002379
   13  C  2  Y   -0.712145   0.188650   0.049984   0.037508  -0.047049
   14  C  2  Z    0.107367  -0.011960   0.011831   0.135710   0.030471
   15  C  2  S    0.048491  -0.602922  -0.274528   0.011047   0.139050
   16  C  2  X    0.090976  -0.475225  -0.426988   0.064749  -0.139349
   17  C  2  Y    2.383130  -0.855856   0.441077  -0.216557   0.019654
   18  C  2  Z   -0.191701   0.106016   0.050987  -0.128600   0.023730
   19  N  3  S    0.022328  -0.005137   0.035119  -0.008885   0.005429
   20  N  3  S   -0.005398   0.011780  -0.058056   0.016062   0.003044
   21  N  3  X   -0.127009   0.152355   0.507599   0.002601  -0.017593
   22  N  3  Y   -0.115319   0.112783   0.281890  -0.011245  -0.147269
   23  N  3  Z    0.060304  -0.035084  -0.066544   0.256174   0.064150
   24  N  3  S   -1.211592   0.567399  -0.035172   0.105069  -0.113543
   25  N  3  X    0.087490   0.082344  -0.041576  -0.043011   0.004816
   26  N  3  Y    0.338827  -0.308904  -0.265747  -0.044680   0.231600
   27  N  3  Z   -0.022661  -0.006352  -0.017193  -0.181928  -0.055106
   28  O  4  S   -0.013471   0.016340  -0.028094   0.009016  -0.010036
   29  O  4  S   -0.018390  -0.040272   0.038335  -0.014555   0.026793
   30  O  4  X    0.023761   0.220532  -0.048831   0.038623  -0.153381
   31  O  4  Y   -0.093590   0.259904  -0.124397   0.070565  -0.121419
   32  O  4  Z    0.000782  -0.050892   0.010751  -0.020949   0.028792
   33  O  4  S    0.487914   0.175296   0.275655  -0.055984  -0.082855
   34  O  4  X   -0.270531  -0.054567  -0.122493   0.026246   0.077299
   35  O  4  Y   -0.080513   0.268938   0.063911   0.011726  -0.061087
   36  O  4  Z    0.070625   0.002935   0.028493   0.021941  -0.008523
   37  H  5  S   -0.028355   0.427218  -0.159170  -0.872912   0.374232
   38  H  5  S   -0.313010  -0.305664   0.157084   1.206353  -0.083548
   39  H  6  S   -0.000562   0.391998   0.052707   0.648623   0.738453
   40  H  6  S   -0.376266  -0.191579  -0.163290  -1.007123  -0.681073
   41  H  7  S    0.262925   0.243977   0.020323  -0.139944   0.573309
   42  H  7  S    0.716434   0.051868   0.177685   0.108695  -0.732989
   43  H  8  S    0.148302   0.210081   1.072608  -0.092388  -0.175330
   44  H  8  S   -0.218587   0.000031  -0.906222   0.084235   0.198625
   45  H  9  S    0.074986   0.918623  -0.377411   0.234255  -0.629408
   46  H  9  S   -0.069373  -0.663715   0.374893  -0.222420   0.686194

                     36         37         38         39         40
                    1.0457     1.1803     1.2618     1.3289     1.4782
                     A          A          A          A          A   
    1  C  1  S   -0.002988   0.000528  -0.002995   0.026928   0.032453
    2  C  1  S    0.004736  -0.013083   0.154394  -0.353323  -0.732246
    3  C  1  X   -0.323663   0.007538  -0.149239   0.018887   0.032554
    4  C  1  Y    0.477584   0.037622  -0.150050   0.147607  -0.060490
    5  C  1  Z   -0.020222   0.127488   0.006924  -0.039161  -0.011774
    6  C  1  S    0.051747   0.024110  -0.553959   0.293776   0.392658
    7  C  1  X    0.211271   0.047494   0.297464  -0.229974  -0.708906
    8  C  1  Y   -0.306523  -0.067941   0.086043  -0.511094  -0.305324
    9  C  1  Z    0.043229   0.000917   0.015565   0.138985   0.205027
   10  C  2  S   -0.002650   0.000020   0.009434   0.019890   0.001675
   11  C  2  S   -0.004285  -0.008106   0.269252  -1.209345  -0.775552
   12  C  2  X   -0.131903   0.030734   0.099591   0.173244   0.148988
   13  C  2  Y    0.174439   0.004286   0.041143   0.011796   0.194455
   14  C  2  Z    0.003051   0.155583  -0.017807  -0.037672  -0.021770
   15  C  2  S   -0.050352  -0.011903   0.616443   2.542828   0.694095
   16  C  2  X    0.437005  -0.119915  -0.412731   0.191640  -1.342848
   17  C  2  Y   -0.582565   0.004062   0.687186   0.209103  -0.689759
   18  C  2  Z   -0.046794  -0.546568   0.042978  -0.049598   0.211948
   19  N  3  S   -0.012840  -0.000533   0.064502   0.004448   0.022740
   20  N  3  S    0.041119   0.002059  -0.160441  -0.061085  -0.125205
   21  N  3  X   -0.032178  -0.198392  -0.155181   0.576531  -0.620398
   22  N  3  Y    0.069330  -0.006460  -0.912481  -0.304327   0.202036
   23  N  3  Z    0.012939  -0.984733   0.036732  -0.111336   0.109162
   24  N  3  S    0.314973  -0.004447  -0.400576  -0.384327   0.127525
   25  N  3  X   -0.093308   0.227616   0.331082  -0.940834   1.353147
   26  N  3  Y   -0.140981   0.006289   1.455871   0.801711  -0.592023
   27  N  3  Z    0.009633   1.117568  -0.079059   0.175347  -0.228285
   28  O  4  S    0.013049  -0.000363  -0.013083   0.026498  -0.027585
   29  O  4  S   -0.025203  -0.000364   0.038116  -0.041029   0.058674
   30  O  4  X   -0.055628   0.031191   0.026879  -0.050226   0.297289
   31  O  4  Y   -0.055924   0.002282   0.098596   0.269429   0.055918
   32  O  4  Z   -0.003242   0.144923   0.002845   0.000250  -0.211552
   33  O  4  S   -0.309101   0.009030   0.180417  -0.398295   0.247918
   34  O  4  X    0.139538  -0.012194  -0.072978   0.268502  -0.354857
   35  O  4  Y   -0.068623   0.003138  -0.077161  -0.463956   0.134227
   36  O  4  Z   -0.019508  -0.029107   0.010296  -0.038146   0.231577
   37  H  5  S    0.463327  -0.211913  -0.010153   0.166288   0.120475
   38  H  5  S   -0.621631   0.238882   0.093501  -0.466200  -0.461749
   39  H  6  S    0.477513   0.217979   0.000061   0.138580   0.136569
   40  H  6  S   -0.612095  -0.299338   0.162736  -0.376891  -0.418516
   41  H  7  S   -0.990146  -0.000360  -0.178354   0.097426   0.093874
   42  H  7  S    1.212301   0.046213   0.463859  -0.049084  -0.547677
   43  H  8  S   -0.007870   0.003993   0.535483  -0.120034   0.458360
   44  H  8  S   -0.039370  -0.002245  -0.784187  -0.589453   0.308883
   45  H  9  S   -0.280895  -0.000597  -0.019017   0.087774  -0.093357
   46  H  9  S    0.172679   0.003181   0.055630  -0.329674   0.095550

                     41         42         43         44         45
                    1.4982     1.6525     1.7925     2.0413     2.5941
                     A          A          A          A          A   
    1  C  1  S   -0.005019   0.023462  -0.025195  -0.086230   0.000738
    2  C  1  S    0.094802   0.005902  -1.337077  -1.429134   0.106467
    3  C  1  X   -0.011820  -0.202622  -0.069090   0.080745   0.022861
    4  C  1  Y   -0.005673   0.006006  -0.027782   0.042032   0.014034
    5  C  1  Z   -0.056573   0.023601   0.017609  -0.014093   0.001451
    6  C  1  S   -0.029591  -1.029137   2.580669   4.689172  -0.495653
    7  C  1  X    0.179970  -0.151038   0.145968   1.103077  -0.400494
    8  C  1  Y    0.099002  -0.453550   0.111608   0.751547   0.292708
    9  C  1  Z    0.350590   0.107445  -0.042241  -0.263888   0.053161
   10  C  2  S    0.000478  -0.019112   0.027876   0.040741   0.019329
   11  C  2  S    0.122327  -0.107131   0.216840   0.894217   0.078141
   12  C  2  X   -0.002482   0.354433   0.029230  -0.122540  -0.001886
   13  C  2  Y   -0.023535   0.008231   0.079641  -0.141270  -0.075978
   14  C  2  Z    0.115045  -0.070683  -0.010787   0.027966   0.002258
   15  C  2  S   -0.132127   0.920547  -1.269760  -2.441904  -1.965185
   16  C  2  X    0.092956  -0.978439   0.032822   2.354434  -0.289643
   17  C  2  Y    0.081217  -0.927895  -0.239389   1.619377  -2.008822
   18  C  2  Z   -0.653389   0.210899   0.008975  -0.526159   0.111526
   19  N  3  S   -0.003410  -0.002195  -0.019282   0.009119  -0.011629
   20  N  3  S    0.018108   0.102473   0.068437  -0.103015  -1.887633
   21  N  3  X    0.064744  -0.292984   0.102572   0.101909   0.059988
   22  N  3  Y   -0.042314   0.137478  -0.190026   0.022755   0.185696
   23  N  3  Z   -0.148833   0.055081  -0.011728  -0.020263  -0.015573
   24  N  3  S   -0.007365   0.073228   0.427961  -0.249911   3.960701
   25  N  3  X   -0.142877   0.768998  -0.201996  -0.732311  -0.282452
   26  N  3  Y    0.105307  -0.403826   0.076190   0.198892  -1.363283
   27  N  3  Z    0.346245  -0.143314   0.030474   0.144585   0.088292
   28  O  4  S    0.003882   0.037045   0.014587  -0.003305   0.019327
   29  O  4  S   -0.007790  -0.174561  -0.045663  -0.073371  -0.314785
   30  O  4  X   -0.239451  -0.863431  -0.169445   0.004647  -0.067176
   31  O  4  Y   -0.044553   0.247369  -0.701394   0.632629  -0.111069
   32  O  4  Z   -0.966678   0.160132   0.065221  -0.018517   0.015135
   33  O  4  S   -0.037206   0.131704   0.020711   0.121879   0.350296
   34  O  4  X    0.271693   1.200604   0.146022  -0.150715   0.141351
   35  O  4  Y    0.021264  -0.224399   1.188337  -1.397204   0.440835
   36  O  4  Z    1.084688  -0.226228  -0.079242   0.071517  -0.038099
   37  H  5  S   -0.074283   0.032879  -0.151662  -0.336016   0.028192
   38  H  5  S   -0.051392  -0.079344  -0.449190  -0.294414   0.114549
   39  H  6  S    0.013625   0.013050  -0.149544  -0.338268   0.050694
   40  H  6  S    0.209159  -0.008260  -0.462993  -0.299760   0.096716
   41  H  7  S   -0.002345   0.115780  -0.153604  -0.299801  -0.057485
   42  H  7  S    0.066199   0.122428  -0.433263  -0.377094  -0.109999
   43  H  8  S   -0.066023   0.234962  -0.074585  -0.200994  -0.296298
   44  H  8  S   -0.054901   0.278044  -0.074459  -0.134780  -0.176142
   45  H  9  S    0.020038   0.216478   0.434902  -0.436340   0.113412
   46  H  9  S   -0.022299  -0.422363   0.158047  -0.321910  -0.120728

                     46
                    3.0981
                     A   
    1  C  1  S   -0.001115
    2  C  1  S    0.072378
    3  C  1  X    0.034107
    4  C  1  Y    0.004622
    5  C  1  Z   -0.005100
    6  C  1  S   -0.125979
    7  C  1  X    0.255346
    8  C  1  Y   -0.357328
    9  C  1  Z   -0.047718
   10  C  2  S    0.032513
   11  C  2  S    0.017949
   12  C  2  X   -0.128525
   13  C  2  Y    0.106212
   14  C  2  Z    0.023396
   15  C  2  S   -0.463235
   16  C  2  X   -0.957604
   17  C  2  Y    1.164523
   18  C  2  Z    0.160622
   19  N  3  S    0.010414
   20  N  3  S    0.377027
   21  N  3  X   -0.051779
   22  N  3  Y   -0.059275
   23  N  3  Z    0.010619
   24  N  3  S   -0.986138
   25  N  3  X    0.409728
   26  N  3  Y    0.321068
   27  N  3  Z   -0.087443
   28  O  4  S    0.054413
   29  O  4  S   -1.722401
   30  O  4  X    0.223776
   31  O  4  Y   -0.027603
   32  O  4  Z   -0.043597
   33  O  4  S    2.685145
   34  O  4  X   -0.821401
   35  O  4  Y    0.073875
   36  O  4  Z    0.162858
   37  H  5  S   -0.041790
   38  H  5  S    0.031355
   39  H  6  S   -0.055289
   40  H  6  S    0.004882
   41  H  7  S    0.102251
   42  H  7  S    0.098174
   43  H  8  S    0.182952
   44  H  8  S   -0.040753
   45  H  9  S   -0.309326
   46  H  9  S   -0.136697
 ...... END OF RHF CALCULATION ......
 STEP CPU TIME =     6.25 TOTAL CPU TIME =          6.3 (      0.1 MIN)
 TOTAL WALL CLOCK TIME=          6.4 SECONDS, CPU UTILIZATION IS    97.82%

     ---------------------------------------------------------------------
     PROPERTIES FOR THE B3LYP    DFT FUNCTIONAL (RHF  TYPE) DENSITY MATRIX
     ---------------------------------------------------------------------

          -----------------
          ENERGY COMPONENTS
          -----------------

         WAVEFUNCTION NORMALIZATION =       1.0000000000

                ONE ELECTRON ENERGY =    -521.4506334508
                TWO ELECTRON ENERGY =     192.6258861090
           NUCLEAR REPULSION ENERGY =     120.9308711033
                                      ------------------
                       TOTAL ENERGY =    -207.8938762385

 ELECTRON-ELECTRON POTENTIAL ENERGY =     192.6258861090
  NUCLEUS-ELECTRON POTENTIAL ENERGY =    -727.8511422754
   NUCLEUS-NUCLEUS POTENTIAL ENERGY =     120.9308711033
                                      ------------------
             TOTAL POTENTIAL ENERGY =    -414.2943850631
               TOTAL KINETIC ENERGY =     206.4005088246
                 VIRIAL RATIO (V/T) =       2.0072352894

          ---------------------------------------
          MULLIKEN AND LOWDIN POPULATION ANALYSES
          ---------------------------------------

     ATOMIC MULLIKEN POPULATION IN EACH MOLECULAR ORBITAL

                      1          2          3          4          5

                  2.000000   2.000000   2.000000   2.000000   2.000000

    1            -0.000074  -0.000020   0.006577   1.983745   0.020207
    2             0.005147   0.011773   1.994064   0.006627   0.220059
    3            -0.000007   1.986861  -0.000219  -0.000006   0.051274
    4             1.993933  -0.000008  -0.000690   0.000001   1.602773
    5            -0.000001  -0.000001   0.000070   0.003214  -0.000869
    6             0.000000  -0.000001   0.000060   0.003200  -0.000896
    7            -0.000000   0.000009   0.000024   0.003193   0.001057
    8             0.000000   0.001385   0.000059   0.000005   0.000003
    9             0.001001   0.000001   0.000055   0.000021   0.106391

                      6          7          8          9         10

                  2.000000   2.000000   2.000000   2.000000   2.000000

    1             0.056873   1.318371   0.039950   0.687005   0.124672
    2             0.381750   0.234945   0.368817   0.631538   0.356878
    3             1.300319   0.133082   0.275671   0.058877   0.757897
    4             0.143883   0.039377   0.865530   0.328325   0.250979
    5             0.000749   0.087322   0.005432   0.070795   0.006014
    6             0.000937   0.090271   0.006025   0.064944   0.021781
    7            -0.000083   0.084818   0.017661   0.123451   0.031966
    8             0.087162   0.011406   0.128635   0.000508   0.392939
    9             0.028410   0.000408   0.292280   0.034558   0.056874

                     11         12         13         14         15

                  2.000000   2.000000   2.000000   2.000000   2.000000

    1             0.822778   0.922692   0.277927   0.223262   0.003343
    2             0.358331   0.054462   0.384597   0.112302   0.240384
    3             0.061318   0.140391   0.142710   0.080369   1.014541
    4             0.176303   0.090727   0.929657   1.372613   0.703881
    5             0.323452   0.100294   0.149975   0.000370   0.018910
    6             0.252977   0.195066   0.112104   0.005551   0.018821
    7             0.004446   0.387171   0.002998   0.130169   0.000086
    8             0.000309   0.066232   0.000002   0.005964   0.000034
    9             0.000086   0.042965   0.000031   0.069401   0.000000

                     16

                  2.000000

    1             0.162229
    2             0.108748
    3             1.571286
    4             0.057368
    5             0.014721
    6             0.020067
    7             0.002999
    8             0.061774
    9             0.000808

               ----- POPULATIONS IN EACH AO -----
                             MULLIKEN      LOWDIN
              1  C  1  S      1.98673     1.97433
              2  C  1  S      0.36752     0.43011
              3  C  1  X      0.56386     0.53317
              4  C  1  Y      0.57197     0.53775
              5  C  1  Z      0.56931     0.52856
              6  C  1  S      1.13169     0.58671
              7  C  1  X      0.42925     0.56208
              8  C  1  Y      0.49937     0.58511
              9  C  1  Z      0.52983     0.59078
             10  C  2  S      1.98442     1.97349
             11  C  2  S      0.42309     0.42686
             12  C  2  X      0.53161     0.49870
             13  C  2  Y      0.64157     0.60640
             14  C  2  Z      0.45804     0.43562
             15  C  2  S      0.58705     0.51785
             16  C  2  X      0.23753     0.44319
             17  C  2  Y      0.08949     0.42253
             18  C  2  Z      0.51762     0.53758
             19  N  3  S      1.98801     1.97958
             20  N  3  S      0.39812     0.52472
             21  N  3  X      0.65176     0.62471
             22  N  3  Y      0.62488     0.60416
             23  N  3  Z      0.53479     0.52454
             24  N  3  S      1.43983     0.86860
             25  N  3  X      0.68635     0.77862
             26  N  3  Y      0.56135     0.67615
             27  N  3  Z      0.68927     0.71365
             28  O  4  S      1.98487     1.97865
             29  O  4  S      0.42384     0.57452
             30  O  4  X      0.72539     0.71883
             31  O  4  Y      0.61336     0.57986
             32  O  4  Z      0.82553     0.82979
             33  O  4  S      1.50547     0.99464
             34  O  4  X      0.84976     0.88917
             35  O  4  Y      0.65060     0.70349
             36  O  4  Z      0.97583     0.97594
             37  H  5  S      0.46591     0.46394
             38  H  5  S      0.31453     0.42699
             39  H  6  S      0.46738     0.46538
             40  H  6  S      0.32352     0.43098
             41  H  7  S      0.46859     0.46480
             42  H  7  S      0.32137     0.42830
             43  H  8  S      0.46858     0.46333
             44  H  8  S      0.28784     0.37757
             45  H  9  S      0.43742     0.44144
             46  H  9  S      0.19587     0.30678

          ----- MULLIKEN ATOMIC OVERLAP POPULATIONS -----
          (OFF-DIAGONAL ELEMENTS NEED TO BE MULTIPLIED BY 2)

             1           2           3           4           5

    1    5.7079142
    2    0.1295688   4.7824807
    3   -0.1019600   0.5044064   6.9094025
    4   -0.0880757   0.2547898  -0.0511580   8.1726346
    5    0.3442155  -0.0392199   0.0009560   0.0017389   0.5180796
    6    0.3348706  -0.0354006   0.0017616   0.0020181  -0.0263635
    7    0.3383289  -0.0248746   0.0003157   0.0020780  -0.0199588
    8   -0.0132903  -0.0619400   0.3070371   0.0030860   0.0003567
    9   -0.0020343  -0.0393892   0.0036003   0.2575415   0.0006431

             6           7           8           9

    6    0.5334770
    7   -0.0211673   0.5104908
    8    0.0003847   0.0045271   0.5165201
    9    0.0013265   0.0002246  -0.0002638   0.4116409

          TOTAL MULLIKEN AND LOWDIN ATOMIC POPULATIONS
       ATOM         MULL.POP.    CHARGE          LOW.POP.     CHARGE
    1 C             6.649538   -0.649538         6.328611   -0.328611
    2 C             5.470421    0.529579         5.862228    0.137772
    3 N             7.574361   -0.574361         7.294742   -0.294742
    4 O             8.554653   -0.554653         8.244897   -0.244897
    5 H             0.780447    0.219553         0.890932    0.109068
    6 H             0.790907    0.209093         0.896365    0.103635
    7 H             0.789964    0.210036         0.893102    0.106898
    8 H             0.756418    0.243582         0.840906    0.159094
    9 H             0.633290    0.366710         0.748219    0.251781

          -------------------------------
          BOND ORDER AND VALENCE ANALYSIS     BOND ORDER THRESHOLD=0.050
          -------------------------------

                   BOND                       BOND                       BOND
  ATOM PAIR DIST  ORDER      ATOM PAIR DIST  ORDER      ATOM PAIR DIST  ORDER
    1   2  1.510  0.894        1   5  1.094  0.901        1   6  1.094  0.902
    1   7  1.094  0.912        2   3  1.288  1.804        2   4  1.351  0.973
    3   4  2.277  0.127        3   8  1.024  0.864        4   9  0.970  0.809

                       TOTAL       BONDED        FREE
      ATOM            VALENCE     VALENCE     VALENCE
    1 C                 3.631       3.631      -0.000
    2 C                 3.680       3.680      -0.000
    3 N                 2.861       2.861       0.000
    4 O                 1.956       1.956      -0.000
    5 H                 0.907       0.907      -0.000
    6 H                 0.913       0.913      -0.000
    7 H                 0.921       0.921       0.000
    8 H                 0.907       0.907       0.000
    9 H                 0.841       0.841       0.000

          ---------------------
          ELECTROSTATIC MOMENTS
          ---------------------

 POINT   1           X           Y           Z (BOHR)    CHARGE
                 0.000004   -0.000001    0.000001       -0.00 (A.U.)
         DX          DY          DZ         /D/  (DEBYE)
    -2.807072   -3.272296    0.702221    4.368145
 ...... END OF PROPERTY EVALUATION ......
 STEP CPU TIME =     0.02 TOTAL CPU TIME =          6.3 (      0.1 MIN)
 TOTAL WALL CLOCK TIME=          6.4 SECONDS, CPU UTILIZATION IS    97.82%

 BEGINNING ONE ELECTRON GRADIENT...
 ..... END OF 1-ELECTRON GRADIENT ......
 STEP CPU TIME =     0.00 TOTAL CPU TIME =          6.3 (      0.1 MIN)
 TOTAL WALL CLOCK TIME=          6.4 SECONDS, CPU UTILIZATION IS    97.67%

          ----------------------
          GRADIENT OF THE ENERGY
          ----------------------
 MEMORY FOR GRID POINT CONTRIBUTIONS TO THE DFT GRADIENT=    587967 WORDS.
 STEP CPU TIME =     1.57 TOTAL CPU TIME =          7.9 (      0.1 MIN)
 TOTAL WALL CLOCK TIME=          8.0 SECONDS, CPU UTILIZATION IS    98.00%
 THE COARSE/FINE SCHWARZ SCREENINGS SKIPPED         5410/        2609 BLOCKS.
 THE NUMBER OF GRADIENT INTEGRAL BLOCKS COMPUTED WAS     23998
 ...... END OF 2-ELECTRON GRADIENT ......
 STEP CPU TIME =     0.03 TOTAL CPU TIME =          7.9 (      0.1 MIN)
 TOTAL WALL CLOCK TIME=          8.0 SECONDS, CPU UTILIZATION IS    98.01%

          NSERCH=  0     ENERGY=    -207.8938762

                                 -----------------------
                                 GRADIENT (HARTREE/BOHR)
                                 -----------------------
        ATOM     ZNUC       DE/DX         DE/DY         DE/DZ
 --------------------------------------------------------------
    1  C            6.0     0.0026047     0.0007397     0.0002738
    2  C            6.0     0.0236986    -0.0353373    -0.0034058
    3  N            7.0    -0.0109782     0.0223205     0.0014152
    4  O            8.0    -0.0287372    -0.0090704     0.0058422
    5  H            1.0     0.0022402     0.0034307    -0.0014701
    6  H            1.0     0.0024673     0.0032129    -0.0001871
    7  H            1.0    -0.0006498     0.0021430    -0.0005464
    8  H            1.0     0.0048043    -0.0044091    -0.0005055
    9  H            1.0     0.0045502     0.0169701    -0.0014165

          MAXIMUM GRADIENT = 0.0353373    RMS GRADIENT = 0.0118423

 NSERCH:   0  E=     -207.8938762385  GRAD. MAX=  0.0353373  R.M.S.=  0.0118423

          FORCE CONSTANT MATRIX NOT UPDATED --- TAKING FIRST STEP
          MIN SEARCH, CORRECT HESSIAN, TRYING PURE NR STEP
               NR STEP HAS LENGTH         =   1.193970
          TRIM/QA LAMBDA FOR NON-TS MODES =  -0.00200873
          TRIM/QA STEP HAS LENGTH         =   0.300000
          RADIUS OF STEP TAKEN=   0.30000  CURRENT TRUST RADIUS=   0.30000

 BEGINNING GEOMETRY SEARCH POINT NSERCH=   1 ...

 COORDINATES OF ALL ATOMS ARE (ANGS)
   ATOM   CHARGE       X              Y              Z
 ------------------------------------------------------------
 C           6.0  -1.2258689516  -0.7314666012   0.2764418915
 C           6.0  -0.0158963897   0.1230380024  -0.0050630100
 N           7.0   0.0998593587   1.3903653178   0.0074217128
 O           8.0   1.1720065742  -0.5622605421  -0.2035474400
 H           1.0  -1.1130521307  -1.2902961970   1.2146480672
 H           1.0  -1.3788914950  -1.4744548807  -0.5149715956
 H           1.0  -2.1121552277  -0.0974261404   0.3541925710
 H           1.0  -0.8528160024   1.8242992071   0.0385290780
 H           1.0   0.9756042642  -1.5417581660  -0.1767412749

          INTERNUCLEAR DISTANCES (ANGS.)
          ------------------------------

                1 C          2 C          3 N          4 O          5 H     

   1 C       0.0000000    1.5077986 *  2.5163661 *  2.4512910 *  1.0978383 *
   2 C       1.5077986 *  0.0000000    1.2726641 *  1.3856925 *  2.1654005 *
   3 N       2.5163661 *  1.2726641 *  0.0000000    2.2375780 *  3.1803295  
   4 O       2.4512910 *  1.3856925 *  2.2375780 *  0.0000000    2.7861816 *
   5 H       1.0978383 *  2.1654005 *  3.1803295    2.7861816 *  0.0000000  
   6 H       1.0962585 *  2.1609595 *  3.2660058    2.7269332 *  1.7595935 *
   7 H       1.0924998 *  2.1382166 *  2.6882675 *  3.3634601    1.7780691 *
   8 H       2.5937829 *  1.8964768 *  1.0473092 *  3.1391360    3.3394136  
   9 H       2.3892325 *  1.9452746 *  3.0656473    0.9993538 *  2.5222377 *

                6 H          7 H          8 H          9 H     

   1 C       1.0962585 *  1.0924998 *  2.5937829 *  2.3892325 *
   2 C       2.1609595 *  2.1382166 *  1.8964768 *  1.9452746 *
   3 N       3.2660058    2.6882675 *  1.0473092 *  3.0656473  
   4 O       2.7269332 *  3.3634601    3.1391360    0.9993538 *
   5 H       1.7595935 *  1.7780691 *  3.3394136    2.5222377 *
   6 H       0.0000000    1.7858696 *  3.3859854    2.3796176 *
   7 H       1.7858696 *  0.0000000    2.3191824 *  3.4499630  
   8 H       3.3859854    2.3191824 *  0.0000000    3.8366397  
   9 H       2.3796176 *  3.4499630    3.8366397    0.0000000  

  * ... LESS THAN  3.000

 ...... END OF ONE-ELECTRON INTEGRALS ......
 STEP CPU TIME =     0.00 TOTAL CPU TIME =          7.9 (      0.1 MIN)
 TOTAL WALL CLOCK TIME=          8.1 SECONDS, CPU UTILIZATION IS    97.89%
  ...... END OF TWO-ELECTRON INTEGRALS .....
 STEP CPU TIME =     0.00 TOTAL CPU TIME =          7.9 (      0.1 MIN)
 TOTAL WALL CLOCK TIME=          8.1 SECONDS, CPU UTILIZATION IS    97.77%

          --------------------------
             R-B3LYP SCF CALCULATION
          --------------------------
         DENSITY MATRIX CONVERGENCE THRESHOLD=  1.00E-04
     COARSE -> FINE DFT GRID SWITCH THRESHOLD=  1.50E-03 (SWITCH IN $DFT)
                   HF -> DFT SWITCH THRESHOLD=  5.00E-03 (SWOFF IN $DFT)

 DIRECT SCF CALCULATION, SCHWRZ=T   FDIFF=T,  DIRTHR=  0.00E+00 NITDIR=10

 DFT CODE IS SWITCHING FROM THE FINE GRID NRAD= 96,  NLEB=  590
                      TO THE COARSE GRID NRAD0= 24, NLEB0=  110

                                                                                   NONZERO     BLOCKS
 ITER EX DEM     TOTAL ENERGY        E CHANGE  DENSITY CHANGE    DIIS ERROR      INTEGRALS    SKIPPED
          * * *   INITIATING DIIS PROCEDURE   * * *
   1  0  0     -207.8852864553  -207.8852864553   0.032245964   0.029143853         538634       4611
   2  1  0     -207.8915909586    -0.0063045033   0.021133257   0.023946550         534072       6057
   3  2  0     -207.8915769977     0.0000139609   0.010598881   0.025026964         529733       6667
   4  3  0     -207.8924811664    -0.0009041687   0.001945461   0.002182658         527486       6904
   5  4  0     -207.8924831553    -0.0000019888   0.000799673   0.001599615         517210       7813
 DFT CODE IS SWITCHING BACK TO THE FINE GRID
          * * *   INITIATING DIIS PROCEDURE   * * *
   6  5  0     -207.8940771271    -0.0015939719   0.001635669   0.001731278         538633       4614
   7  6  0     -207.8940864235    -0.0000092964   0.000672857   0.000686031         516986       7779
   8  7  0     -207.8940865557    -0.0000001322   0.000350747   0.000776149         511682       8270
   9  8  0     -207.8940875840    -0.0000010283   0.000123994   0.000160114         506397       8668
  10  9  0     -207.8940876314    -0.0000000474   0.000042521   0.000066734         495409       9584
  11 10  0     -207.8940876385    -0.0000000071   0.000026509   0.000021426         487164      10235

          -----------------
          DENSITY CONVERGED
          -----------------
     TIME TO FORM FOCK OPERATORS=       5.0 SECONDS (       0.5 SEC/ITER)
     FOCK TIME ON FIRST ITERATION=       0.1, LAST ITERATION=       0.8
     TIME TO SOLVE SCF EQUATIONS=       0.0 SECONDS (       0.0 SEC/ITER)

 FINAL R-B3LYP ENERGY IS     -207.8940876385 AFTER  11 ITERATIONS
 DFT EXCHANGE + CORRELATION ENERGY =       -22.6227238597
 TOTAL ELECTRON NUMBER             =        32.0000020314
 ...... END OF RHF CALCULATION ......
 STEP CPU TIME =     5.18 TOTAL CPU TIME =         13.1 (      0.2 MIN)
 TOTAL WALL CLOCK TIME=         13.3 SECONDS, CPU UTILIZATION IS    98.27%
 ..... END OF 1-ELECTRON GRADIENT ......
 STEP CPU TIME =     0.00 TOTAL CPU TIME =         13.1 (      0.2 MIN)
 TOTAL WALL CLOCK TIME=         13.3 SECONDS, CPU UTILIZATION IS    98.20%
 MEMORY FOR GRID POINT CONTRIBUTIONS TO THE DFT GRADIENT=    587967 WORDS.
 STEP CPU TIME =     1.57 TOTAL CPU TIME =         14.6 (      0.2 MIN)
 TOTAL WALL CLOCK TIME=         14.9 SECONDS, CPU UTILIZATION IS    98.39%
 ...... END OF 2-ELECTRON GRADIENT ......
 STEP CPU TIME =     0.02 TOTAL CPU TIME =         14.7 (      0.2 MIN)
 TOTAL WALL CLOCK TIME=         14.9 SECONDS, CPU UTILIZATION IS    98.26%

          NSERCH=  1     ENERGY=    -207.8940876

                                 -----------------------
                                 GRADIENT (HARTREE/BOHR)
                                 -----------------------
        ATOM     ZNUC       DE/DX         DE/DY         DE/DZ
 --------------------------------------------------------------
    1  C            6.0     0.0058752     0.0023558     0.0038614
    2  C            6.0    -0.0127702    -0.0083164    -0.0070988
    3  N            7.0     0.0215876    -0.0046096     0.0090463
    4  O            8.0    -0.0003695     0.0177669    -0.0001837
    5  H            1.0    -0.0021854    -0.0025519    -0.0013076
    6  H            1.0     0.0017610    -0.0007683     0.0021303
    7  H            1.0     0.0015757     0.0024884     0.0002428
    8  H            1.0    -0.0101197    -0.0022842    -0.0065263
    9  H            1.0    -0.0053548    -0.0040806    -0.0001645

          MAXIMUM GRADIENT = 0.0215876    RMS GRADIENT = 0.0073234

 NSERCH:   1  E=     -207.8940876385  GRAD. MAX=  0.0215876  R.M.S.=  0.0073234

          HESSIAN UPDATED USING THE BFGS FORMULA
             ACTUAL ENERGY CHANGE WAS  -0.0002114000
          PREDICTED ENERGY CHANGE WAS  -0.0028959226 RATIO=  0.073
          MIN SEARCH, CORRECT HESSIAN, TRYING PURE NR STEP
               NR STEP HAS LENGTH         =  10.723982
          TRIM/QA LAMBDA FOR NON-TS MODES =  -0.09076121
          TRIM/QA STEP HAS LENGTH         =   0.150000
          RADIUS OF STEP TAKEN=   0.15000  CURRENT TRUST RADIUS=   0.15000

 BEGINNING GEOMETRY SEARCH POINT NSERCH=   2 ...

 COORDINATES OF ALL ATOMS ARE (ANGS)
   ATOM   CHARGE       X              Y              Z
 ------------------------------------------------------------
 C           6.0  -1.2252967579  -0.7320949751   0.2678918459
 C           6.0  -0.0043430966   0.1325560225   0.0259562796
 N           7.0   0.0746579067   1.3891954099  -0.0419293534
 O           8.0   1.1803361126  -0.5733659415  -0.2045029420
 H           1.0  -1.1129446824  -1.2859225571   1.2128753638
 H           1.0  -1.3818339808  -1.4738595460  -0.5223984519
 H           1.0  -2.1153256950  -0.1053063368   0.3519647948
 H           1.0  -0.8456210169   1.8413379732   0.0717695980
 H           1.0   0.9791612104  -1.5525000491  -0.1707171347

          INTERNUCLEAR DISTANCES (ANGS.)
          ------------------------------

                1 C          2 C          3 N          4 O          5 H     

   1 C       0.0000000    1.5155468 *  2.5071386 *  2.4567094 *  1.1010640 *
   2 C       1.5155468 *  0.0000000    1.2609489 *  1.3981781 *  2.1563524 *
   3 N       2.5071386 *  1.2609489 *  0.0000000    2.2584511 *  3.1845237  
   4 O       2.4567094 *  1.3981781 *  2.2584511 *  0.0000000    2.7885184 *
   5 H       1.1010640 *  2.1563524 *  3.1845237    2.7885184 *  0.0000000  
[...]
                   Z  0.40869731  0.01959962  0.00150054-18.66648608 -1.95935808
               TOTAL  0.41155643  0.15862435  0.00455168 18.91978775 13.58598699

                            6           7           8           9          10
       FREQUENCY:        10.68      169.51      294.59      419.54      557.60  
        SYMMETRY:         A           A           A           A           A   
    REDUCED MASS:      3.79276     1.06701     1.16047     2.51217     2.86418
    IR INTENSITY:      0.13115     0.00351     2.35063     0.15643     0.01352

  1   C            X -0.03611703 -0.00021504 -0.00308171 -0.08602341 -0.02719946
                   Y  0.00496875 -0.00049672 -0.00106546  0.08496005 -0.02286734
                   Z -0.15044103 -0.00432164 -0.01695663  0.01203598  0.00671952
  2   C            X  0.00020710  0.00363668  0.00711599  0.03461248  0.02119277
                   Y -0.00007125  0.00168379  0.00207340 -0.08091973  0.00412425
                   Z -0.00483919  0.02111475  0.03844492 -0.00172690  0.20696730
  3   N            X  0.00896290 -0.00863341  0.00505295 -0.06127877  0.01855048
                   Y -0.00180923 -0.00182160  0.00137725 -0.07616625 -0.01339592
                   Z -0.02467292 -0.04900637  0.02519789  0.01482723 -0.09114416
  4   O            X  0.02674157  0.00551542 -0.01552914  0.11264755 -0.00734323
                   Y -0.00319556  0.00108280 -0.00385332  0.04155727  0.02785266
                   Z  0.17342605  0.03415680 -0.08126193 -0.02347797 -0.04517084
  5   H            X -0.15745381  0.19636106 -0.06616416 -0.25359530 -0.29947586
                   Y  0.02297572 -0.42806169 -0.02646260  0.09022955 -0.16027753
                   Z -0.11887489 -0.31449325 -0.01959275  0.04174097 -0.04351541
  6   H            X  0.07508448 -0.29866713  0.05477601 -0.26053335  0.21382761
                   Y -0.01142574  0.39221269  0.02325405  0.09472621  0.10306622
                   Z -0.15944232 -0.27283123 -0.04525190  0.04082445 -0.15354286
  7   H            X -0.05320039  0.09543359 -0.00730360  0.06437521 -0.06754617
                   Y  0.00715457  0.02913324 -0.00251452  0.31483721 -0.03743121
                   Z -0.28150012  0.52613142 -0.03968820 -0.02380548 -0.20431747
  8   H            X -0.01175092 -0.01088568 -0.01943015 -0.10516839  0.07315584
                   Y  0.00070675 -0.00176127 -0.00439869 -0.16497719  0.04948362
                   Z -0.15893740 -0.06307486 -0.10576188  0.02700939  0.03655389
  9   H            X  0.01738553  0.00955629  0.16628232  0.23075443  0.01036046
                   Y -0.00156809  0.00252089  0.04017310  0.01578644  0.01241747
                   Z  0.17237065  0.06247716  0.89377459 -0.04190895 -0.19629887

 TRANS. SAYVETZ    X -0.00863386  0.00011807 -0.00005581  0.00006140  0.00000580
                   Y  0.00030551  0.00005337  0.00003408 -0.00002707  0.00000201
                   Z  0.01441537 -0.00066160 -0.00024188  0.00001127 -0.00007124
               TOTAL  0.01680594  0.00067417  0.00025056  0.00006804  0.00007151

   ROT. SAYVETZ    X -1.87289996  0.09860144  0.00144428  0.00187651 -0.00150960
                   Y-13.57173983  0.11423554 -0.00456034 -0.00486006 -0.00722590
                   Z -0.88025259 -0.05380558 -0.00993978 -0.00779923  0.00061818
               TOTAL 13.72860957  0.16020938  0.01103095  0.00937920  0.00740774

                           11          12          13          14          15
       FREQUENCY:       559.93      824.04      861.24     1010.67     1065.83  
        SYMMETRY:         A           A           A           A           A   
    REDUCED MASS:      3.83832     6.19930     1.11275     2.02679     1.25488
    IR INTENSITY:      0.04051     0.46840     1.60808     2.19562     4.33393

  1   C            X -0.10261645  0.12854595  0.00135386  0.01296124  0.07504119
                   Y -0.08458784  0.08728011  0.00031559 -0.10422277 -0.05979695
                   Z  0.02348731 -0.02854599  0.01132703  0.00255692 -0.01181811
  2   C            X -0.07570971 -0.04608830 -0.00994719  0.12008911 -0.05525193
                   Y -0.02549810 -0.07643449 -0.00222152 -0.00797809  0.01890613
                   Z -0.04056268  0.01263109 -0.05370936 -0.02230642  0.00997731
  3   N            X  0.13420177  0.01831261 -0.01171530  0.03622825 -0.05047950
                   Y -0.03592923 -0.11858933 -0.00228049  0.04969086 -0.01584736
                   Z -0.00033467  0.00182041 -0.06088697 -0.00939385  0.01006006
  4   O            X  0.00584379 -0.11128094  0.00546393 -0.09405018  0.03054112
                   Y  0.11463868  0.08028968  0.00071953  0.04489885 -0.01531623
                   Z  0.00537365  0.01716385  0.02521964  0.01564116 -0.00497189
  5   H            X -0.00718381  0.10700575 -0.06308812 -0.27722492 -0.21064088
                   Y -0.04798864  0.07929857 -0.05872151 -0.03653815  0.02145592
                   Z  0.03212437 -0.02902212 -0.01960882  0.09119124  0.08169732
  6   H            X -0.14278134  0.11048288  0.04937246 -0.29882936 -0.23513141
                   Y -0.11700882  0.08091628  0.05430740 -0.04600747  0.00890474
                   Z  0.06140486 -0.02079257 -0.04711440  0.02058397  0.00098390
  7   H            X -0.10630715  0.14652332 -0.01164968  0.24963285  0.31925332
                   Y -0.10048600  0.10774234 -0.00346355  0.26331147  0.31899675
                   Z  0.08358827 -0.03406896 -0.06213016 -0.05881138 -0.07395350
  8   H            X  0.23635236  0.04942451  0.16961204 -0.16230610  0.28849576
                   Y  0.17475928 -0.06602904  0.04312329 -0.30846909  0.58305005
                   Z -0.06663631 -0.00110386  0.89835366  0.04649762 -0.08109700
  9   H            X  0.18583961  0.11642733  0.03413585 -0.10621650 -0.18091495
                   Y  0.08130758  0.04237885  0.00771294  0.06066212  0.01775191
                   Z  0.01221589 -0.02321383  0.18087658  0.01797574  0.03342024

 TRANS. SAYVETZ    X  0.00001181  0.00000586  0.00000347 -0.00001277  0.00001927
                   Y -0.00000581 -0.00002234 -0.00000141  0.00000153  0.00001097
                   Z  0.00001717 -0.00000126  0.00000688 -0.00000171  0.00000335
               TOTAL  0.00002163  0.00002313  0.00000783  0.00001297  0.00002242

   ROT. SAYVETZ    X  0.00040766  0.00058712  0.00140206  0.00001138  0.00017243
                   Y  0.00254888  0.00043811 -0.00089205 -0.00114911 -0.00024644
                   Z -0.00006918  0.00012576 -0.00026896 -0.00176434  0.00004975
               TOTAL  0.00258220  0.00074328  0.00168341  0.00210559  0.00030486

                           16          17          18          19          20
       FREQUENCY:      1099.97     1254.61     1320.96     1448.59     1544.04  
        SYMMETRY:         A           A           A           A           A   
    REDUCED MASS:      1.57129     1.45595     2.10143     1.19762     1.06408
    IR INTENSITY:      0.33806     1.84176     3.51908     0.44081     0.23998

  1   C            X  0.02401892  0.03651728 -0.04717759 -0.09213751  0.03848846
                   Y  0.00561202 -0.02075897  0.01067236 -0.07279897 -0.03797852
                   Z  0.12504785 -0.00634232  0.00848180  0.02122109 -0.00983531
  2   C            X -0.02288007 -0.09158363  0.17179212  0.00446731  0.01702517
                   Y -0.00567358 -0.01356581  0.00602284  0.00718943  0.02462097
                   Z -0.11876979  0.01839372 -0.03282937 -0.00090209 -0.00618960
  3   N            X  0.00669427  0.01747497 -0.06801439 -0.00112859 -0.00585593
                   Y  0.00200785  0.10046114 -0.02441984 -0.00925471 -0.02556520
                   Z  0.03590016 -0.00820044  0.01408806  0.00061270  0.00242185
  4   O            X  0.00189892 -0.01609674 -0.07478299 -0.00049335 -0.00449203
                   Y  0.00024554 -0.05756172 -0.00119484  0.00122243 -0.00189550
                   Z  0.00974612  0.00562088  0.01407250  0.00000854  0.00125365
  5   H            X -0.36740288 -0.05711568  0.05450714  0.46160253 -0.18055040
                   Y -0.34013866  0.01984676 -0.06417064  0.26241448  0.49381240
                   Z -0.05263415  0.02992009 -0.05201284  0.12433264  0.35649215
  6   H            X  0.30708900 -0.06598345  0.07281555  0.37850704 -0.21630928
                   Y  0.32569613  0.01371963 -0.05667150  0.23597161  0.42964615
                   Z -0.21932348 -0.00765800  0.03496608 -0.30743083 -0.32781927
  7   H            X -0.04002617  0.13120521 -0.09338033  0.24042543 -0.19810086
                   Y -0.00838426  0.12858486 -0.07002534  0.40809067 -0.36372837
                   Z -0.25689029 -0.02850866  0.02054154 -0.07033235  0.12535386
  8   H            X -0.03376440 -0.08462031  0.21428273 -0.00540318  0.01795104
                   Y -0.00713358 -0.04294460  0.42213164 -0.01839146 -0.00079979
                   Z -0.18154663  0.01800157 -0.06117680  0.00191397 -0.00241927
  9   H            X -0.00260699  0.74485116  0.39989502 -0.00774123  0.06866630
                   Y -0.00110222 -0.19280610 -0.07180764  0.00230956 -0.01458641
                   Z -0.01785566 -0.13051773 -0.07150260  0.00093349 -0.01435004

 TRANS. SAYVETZ    X -0.00000159  0.00000771  0.00000848  0.00000579 -0.00000803
                   Y -0.00000092 -0.00000288 -0.00001743  0.00000604  0.00000325
                   Z -0.00001134 -0.00000120 -0.00000178  0.00000036 -0.00000209
               TOTAL  0.00001149  0.00000832  0.00001946  0.00000837  0.00000891

   ROT. SAYVETZ    X  0.00028586  0.00040590  0.00002688 -0.00040636 -0.00060071
                   Y -0.00182129  0.00013779 -0.00008202  0.00104275  0.00018093
                   Z -0.00085712 -0.00000168  0.00031834  0.00018949  0.00017564
               TOTAL  0.00203309  0.00042865  0.00032983  0.00113506  0.00065149

                           21          22          23          24          25
       FREQUENCY:      1550.89     1766.16     3040.69     3092.39     3143.14  
        SYMMETRY:         A           A           A           A           A   
    REDUCED MASS:      1.04335     5.24437     1.03706     1.09883     1.09654
    IR INTENSITY:      0.26108     2.33740     0.17927     0.27578     0.24225

  1   C            X -0.01325324 -0.00021072  0.02233142 -0.01608191 -0.05941151
                   Y  0.00029283 -0.01972676  0.04473277 -0.00539115  0.06124131
                   Z -0.04956666  0.00103796 -0.00775538 -0.08512482  0.00753264
  2   C            X -0.00521146 -0.01636345 -0.00094587 -0.00008096 -0.00085962
                   Y -0.00294485  0.22783595  0.00174218 -0.00007281  0.00374756
                   Z -0.02021850 -0.00785640  0.00007877 -0.00072001 -0.00002444
  3   N            X  0.00082032  0.00528926  0.00007430 -0.00006617  0.00136678
                   Y  0.00202543 -0.13080606 -0.00082800  0.00000211 -0.00198694
                   Z  0.00144264  0.00527628  0.00002434 -0.00032481 -0.00015808
  4   O            X  0.00099167 -0.00020607  0.00020874  0.00004636  0.00058850
                   Y  0.00038534 -0.02038639 -0.00027680  0.00003396 -0.00086257
                   Z  0.00280814  0.00097498 -0.00002559  0.00027831 -0.00007641
  5   H            X -0.43567445 -0.05791673  0.09957438  0.09445647  0.01822499
                   Y  0.08102583 -0.08074605 -0.34200991 -0.36877850 -0.10412564
                   Z  0.09925357 -0.03770103  0.55360178  0.54511586  0.19237863
  6   H            X  0.49607193 -0.04177612 -0.09285269  0.09799928 -0.04932224
                   Y -0.16127721 -0.07507081 -0.39567568  0.43918172 -0.12914534
                   Z  0.00818259  0.06553780 -0.49834027  0.50716671 -0.17673424
  7   H            X  0.14462093  0.05837511 -0.26918800  0.00103081  0.73185442
                   Y  0.07699305  0.08743521  0.20244396 -0.00570095 -0.50935266
                   Z  0.67058325 -0.01682990  0.03679939 -0.02644793 -0.10330964
  8   H            X -0.00082858 -0.01200130  0.00032208  0.00005342 -0.01622653
                   Y -0.00035003 -0.22436607 -0.00112420  0.00001936  0.00581680
                   Z  0.00504397  0.01300287  0.00000535  0.00015167  0.00276428
  9   H            X -0.01146652  0.18044248  0.00316746 -0.00090779  0.00477854
                   Y  0.00092772 -0.04415393 -0.00110378 -0.00023336  0.00429314
                   Z -0.01675213 -0.03160854 -0.00059353 -0.00375324 -0.00108849

 TRANS. SAYVETZ    X  0.00000367 -0.00000215  0.00000248  0.00000002  0.00000169
                   Y -0.00000008  0.00000754  0.00000208 -0.00000192  0.00000085
                   Z  0.00000310 -0.00000057  0.00000060 -0.00000273  0.00000031
               TOTAL  0.00000480  0.00000786  0.00000329  0.00000334  0.00000191

   ROT. SAYVETZ    X -0.00015369  0.00023175  0.00008719  0.00008908 -0.00007502
                   Y  0.00003959 -0.00006208 -0.00001792  0.00006820 -0.00016100
                   Z -0.00071075 -0.00012409 -0.00000858 -0.00011517  0.00011881
               TOTAL  0.00072826  0.00027011  0.00008943  0.00016078  0.00021369

                           26          27
       FREQUENCY:      3373.23     3523.73  
        SYMMETRY:         A           A   
    REDUCED MASS:      1.07624     1.06593
    IR INTENSITY:      0.05446     0.24980

  1   C            X -0.00055850  0.00003678
                   Y  0.00102112  0.00040581
                   Z  0.00003998 -0.00003563
  2   C            X -0.00674629 -0.00416605
                   Y -0.00713158 -0.00224502
                   Z  0.00162133  0.00088575
  3   N            X -0.05496289 -0.00131419
                   Y  0.04136190  0.00155182
                   Z  0.00842538  0.00016801
  4   O            X  0.00134955 -0.00652741
                   Y  0.00136906 -0.05965330
                   Z -0.00031193  0.00391201
  5   H            X  0.00122374  0.00099501
                   Y -0.00232609  0.00188487
                   Z  0.00322495 -0.00046870
  6   H            X  0.00002660  0.00103864
                   Y -0.00285400  0.00208367
                   Z -0.00323238 -0.00002380
  7   H            X  0.01598098 -0.00528468
                   Y -0.00816235  0.00156619
                   Z -0.00244265  0.00090905
  8   H            X  0.81863902  0.02259581
                   Y -0.48547587 -0.01016868
                   Z -0.13176682 -0.00373460
  9   H            X -0.00663792  0.15167495
                   Y -0.02485124  0.95171268
                   Z  0.00232172 -0.07122469

 TRANS. SAYVETZ    X  0.00000055 -0.00000127
                   Y -0.00000115  0.00000011
                   Z  0.00000029  0.00000013
               TOTAL  0.00000131  0.00000128

   ROT. SAYVETZ    X -0.00001093 -0.00000324
                   Y  0.00000542 -0.00004838
                   Z -0.00006924 -0.00012590
               TOTAL  0.00007031  0.00013492

 REFERENCE ON SAYVETZ CONDITIONS - A. SAYVETZ, J.CHEM.PHYS., 7, 383-389(1939).

 NOTE - THE MODES J,K ARE ORTHONORMALIZED ACCORDING TO
 SUM ON I   M(I) * (X(I,J)*X(I,K) + Y(I,J)*Y(I,K) + Z(I,J)*Z(I,K)) = DELTA(J,K)

  MODE FREQ(CM**-1)  SYMMETRY  RED. MASS  IR INTENS.
     1       0.123    A        6.537523    0.000086
     2       0.099    A        6.599875    0.000021
     3       0.007    A        6.560260    0.000000
     4       5.585    A        3.985250    0.182092
     5       8.473    A        3.567334    0.210434
     6      10.681    A        3.792762    0.131152
     7     169.508    A        1.067008    0.003508
     8     294.591    A        1.160473    2.350629
     9     419.537    A        2.512175    0.156433
    10     557.595    A        2.864184    0.013522
    11     559.929    A        3.838316    0.040508
    12     824.036    A        6.199303    0.468397
    13     861.240    A        1.112755    1.608077
    14    1010.668    A        2.026790    2.195624
    15    1065.826    A        1.254883    4.333931
    16    1099.968    A        1.571291    0.338060
    17    1254.615    A        1.455946    1.841757
    18    1320.964    A        2.101429    3.519085
    19    1448.589    A        1.197622    0.440812
    20    1544.043    A        1.064080    0.239980
    21    1550.888    A        1.043351    0.261075
    22    1766.157    A        5.244374    2.337403
    23    3040.695    A        1.037062    0.179268
    24    3092.387    A        1.098833    0.275776
    25    3143.140    A        1.096539    0.242246
    26    3373.228    A        1.076244    0.054463
    27    3523.732    A        1.065929    0.249799

     -------------------------------
     THERMOCHEMISTRY AT T=  298.15 K
     -------------------------------

 USING IDEAL GAS, RIGID ROTOR, HARMONIC NORMAL MODE APPROXIMATIONS.
 P=  1.01325E+05 PASCAL.
 ALL FREQUENCIES ARE SCALED BY   1.00000
 THE MOMENTS OF INERTIA ARE (IN AMU*BOHR**2)
            176.56309           194.74458           359.92497
 THE ROTATIONAL SYMMETRY NUMBER IS  1.0
 THE ROTATIONAL CONSTANTS ARE (IN GHZ)
     10.21215     9.25873     5.00962
      7 -     27 VIBRATIONAL MODES ARE USED IN THERMOCHEMISTRY.
 THE HARMONIC ZERO POINT ENERGY IS (SCALED BY   1.000)
        0.072722 HARTREE/MOLECULE    15960.668702 CM**-1/MOLECULE 
       45.633888 KCAL/MOL              190.932186 KJ/MOL

               Q               LN Q
 ELEC.     1.00000E+00       0.000000
 TRANS.    1.78296E+07      16.696370
 ROT.      3.98226E+04      10.592191
 VIB.      3.31726E+00       1.199139
 TOT.      2.35532E+12      28.487700

              E         H         G         CV        CP        S
           KJ/MOL    KJ/MOL    KJ/MOL   J/MOL-K   J/MOL-K   J/MOL-K
 ELEC.      0.000     0.000     0.000     0.000     0.000     0.000
 TRANS.     3.718     6.197   -41.389    12.472    20.786   159.606
 ROT.       3.718     3.718   -26.257    12.472    12.472   100.539
 VIB.     196.075   196.075   187.960    41.469    41.469    27.218
 TOTAL    203.511   205.990   120.313    66.412    74.726   287.364
 VIB. THERMAL CORRECTION E(T)-E(0) = H(T)-H(0) =      5142.370 J/MOL

              E         H         G         CV        CP        S
         KCAL/MOL  KCAL/MOL  KCAL/MOL CAL/MOL-K CAL/MOL-K CAL/MOL-K
 ELEC.      0.000     0.000     0.000     0.000     0.000     0.000
 TRANS.     0.889     1.481    -9.892     2.981     4.968    38.147
 ROT.       0.889     0.889    -6.276     2.981     2.981    24.029
 VIB.      46.863    46.863    44.923     9.911     9.911     6.505
 TOTAL     48.640    49.233    28.755    15.873    17.860    68.682
 VIB. THERMAL CORRECTION E(T)-E(0) = H(T)-H(0) =      1229.056 CAL/MOL
 ......END OF NORMAL COORDINATE ANALYSIS......
 STEP CPU TIME =     0.00 TOTAL CPU TIME =        510.8 (      8.5 MIN)
 TOTAL WALL CLOCK TIME=        537.9 SECONDS, CPU UTILIZATION IS    94.96%
                662120  WORDS OF DYNAMIC MEMORY USED
 EXECUTION OF GAMESS TERMINATED NORMALLY Fri Oct  7 21:32:21 2022
 DDI: 263640 bytes (0.3 MB / 0 MWords) used by master data server.

 ----------------------------------------
 CPU timing information for all processes
 ========================================
 0: 504.282 + 6.503 = 510.786
 ----------------------------------------
 ddikick.x: exited gracefully.
----- accounting info -----
Files used on the master node chemcompute-node-0.novalocal were:
-rw-r--r--. 1 chemcomp chemcomp     1001 Oct  7 21:23 /scratch/121631/461741.F05
-rw-rw-r--. 1 chemcomp chemcomp 70451200 Oct  7 21:32 /scratch/121631/461741.F10
-rw-rw-r--. 1 chemcomp chemcomp  4613504 Oct  7 21:32 /scratch/121631/461741.F22
Fri Oct  7 21:32:24 UTC 2022
0.098u 0.037s 9:01.25 0.0%	0+0k 8+208io 0pf+0w
Finishing Up...
Looking for IR data...
Looking for Raman data...
vibramans not found
Looking for thermodynamics data...
Looking for UV-Vis data...
chemcompute.org
{'UTCtimestamp': '2022-10-07T21:32:26.363944', 'cluster': 'jetstream2', 'clusterJobNumber': '121631', 'status': 'COMPLETE', 'nodeList': 'chemcompute-node-0'}
121631
